<?xml version="1.0"?>
<VTKFile type="UnstructuredGrid"  version="0.1"  >
<UnstructuredGrid>
<Piece  NumberOfPoints="14566" NumberOfCells="28705">
<Points>
<DataArray  type="Float64"  NumberOfComponents="3"  format="ascii">0 3 0  0 0 0  2 0 0  2 3 0  2 1.5 0  0 1.5 0  1 0 0  1 3 0  1 1.083333333333333 0  1.1875 2.041666666666667 0  0 2.25 0  2 0.75 0  0 0.75 0  2 2.25 0  0.546235380116959 1.875 0  0.5 0 0  0.5 3 0  1.5 3 0  1.5 0 0  0.75 0.5416666666666666 0  1.397727272727273 0.6098484848484849 0  0.7400140009560829 2.446414029671393 0  0.4305555555555555 1.125 0  1.413194444444444 1.5 0  1.511633211678832 2.466088807785888 0  2 1.125 0  2 1.875 0  0.9531937950269089 1.626186072001953 0  0 0.375 0  0 2.625 0  1.446040104181028 1.054219142057518 0  2 0.375 0  1.613091388971457 2.052622604569185 0  0.3978050788698214 0.7279316172646906 0  1.122034767567557 2.604844747138268 0  0.3976808956026018 2.243942213143948 0  0.4013368467572315 2.628399882254177 0  0.3915890028118316 1.51493140652058 0  0 1.125 0  0 1.875 0  2 2.625 0  0.3745170793253871 0.3535227724338494 0  1.25 0.271574440052701 0  0.7159977215410738 1.350437455814274 0  0.7085197291365257 0.8893370480908342 0  1.706597222222222 1.6875 0  1.696549685796197 1.296777466148165 0  0.8698085846740859 1.947017983326575 0  1.057825596389426 0.7281189555125724 0  1.726188774537831 0.5625 0  1.710431770995195 0.8791872695688975 0  1.75 0 0  1.75 3 0  0.8440250195969674 2.735409186889472 0  1.557361044457889 0.3036611226867964 0  1.021382495358583 2.307750712964459 0  0.9438037150343664 0.3025888941184255 0  1.422209083254015 1.809204266327822 0  1.1296651354649 1.367957652701011 0  1.705681205609129 2.699620803739419 0  0.6535540818054447 0.2653941918737499 0  0.2152777777777777 0.9428714285802794 0  0.6764082332685148 2.163317662154022 0  0.2152777777777777 1.300399603586393 0  0.6738797158697101 1.626558021437488 0  0.2022665791879026 2.438046698110248 0  0.25 3 0  1.38627383238228 2.730439726544761 0  0.2731176900584795 1.979408052870387 0  1.788988139129612 2.433013002880604 0  1.395884399116 2.218504617781978 0  0.1889297394923665 1.6875 0  0.1980492074855439 0.5524276374026066 0  0.25 0 0  1.21434773979559 0.9359132279393747 0  1.162660410385986 1.781867069461707 0  1.25 3 0  0.75 0 0  1.25 0 0  0.75 3 0  1.116873502935106 0.4842556563055509 0  1.277400787068369 2.424746368423087 0  0.6657421642148181 1.120641644021926 0  0.6306361732889977 2.648994399124817 0  1.794501480514241 0.241165679657173 0  0.1995152701183739 2.762823153254418 0  0 0.1875 0  1.470025947155241 1.280086929735272 0  1.484570527100927 0.8252183799387092 0  1.242989691626331 1.165848469786021 0  2 2.0625 0  1.778024971434719 2.207218987747306 0  1.808812959484196 1.96875 0  2 2.8125 0  0.5594399178162468 0.4532199053554985 0  1.780142342986769 1.09053052213301 0  1.125 2.822181958293781 0  1.15437464724632 1.574257741882416 0  0.9258053099401093 1.28898157144858 0  0.9414800874564364 2.500417763956405 0  1.411666711023481 2.014022948820662 0  0.2133789240500979 0.2115885654001305 0  2 0.9375 0  0.3965527976610288 1.72604344321965 0  0.608995122443001 0.7011531686631721 0  0.4138123102177461 0.9264961621055305 0  0.5749863647331368 2.334798630725083 0  0.1987198992492864 2.239057349078047 0  0.4984282205902797 2.070129278380434 0  0.4102452351893879 1.319883055253778 0  0.8831982801865097 2.153602641944079 0  1.623548628757152 1.494145162716432 0  0.2033775143403518 0.7477945287866119 0  0.1940536105539605 1.49340186742834 0  1.202090490568975 2.235671565210217 0  0.8466070242559173 0.7295024517030759 0  0.9532944875716811 0.8934161868796685 0  0.3945591291744741 2.436218116639167 0  0.390119492358766 2.83027622360013 0  0 2.0625 0  1.588911207098181 2.279111216118611 0  1.611152302833269 1.857591555864952 0  1.812477793912983 1.451840609478801 0  2 1.3125 0  0.7299720177885035 1.812388578202914 0  0.3990727621832508 0.1632073431396914 0  0.3931607960443144 0.5402918167664157 0  0 2.8125 0  0 1.6875 0  2 2.4375 0  0 2.4375 0  0 1.3125 0  0 0.5625 0  0 0.9375 0  2 0.5625 0  2 1.6875 0  2 0.1875 0  0.625 2.846709428529378 0  1.253682590775686 0.7434363360896369 0  1.523086796648675 1.651807599666824 0  0.9411304688418869 0.5621263133613359 0  1.125 0.1357872200263505 0  1.41562649854122 0.1731862647719977 0  1.300240745075605 0.4510277883928345 0  1.555879490833153 2.817654319666713 0  0.863104561805179 1.463788789510293 0  0.572634432547554 1.469842074183063 0  1.642240545166245 0.1445731778058382 0  0.875 0.1332980020323718 0  0.2487211794256408 1.121635516083336 0  1.573217117267048 0.6642797787692021 0  1.532509884912857 0.4854117220234143 0  1.318319980339258 1.657499541059452 0  0.6967186728143467 1.986865355086986 0  1.301817177279576 1.331659278786805 0  0.8248882106199859 1.030466229808272 0  1.605750972809839 1.139912728256475 0  1.843199325955406 1.797053511030686 0  0.2063238460867002 0.3820355271287071 0  0.9827851948228239 1.80512896198594 0  1.826970058610837 0.415996684272712 0  1.815548982041781 0.725681816908465 0  1.014647505823572 2.041356564123892 0  1.284408782125187 1.904792104550927 0  0.8525918307249374 2.320050269794524 0  0.2372387727050605 2.600742842596934 0  1.373827344559335 2.562638247702516 0  0.5704448974488513 1.261876095074753 0  1.538823098639072 2.640881839270544 0  1.660201480254432 2.532489581187561 0  0.587112621207044 2.494677032146202 0  0.5461561799319455 1.015291367624069 0  1.572288330999834 0.9577191413849884 0  1.867150148288836 2.71875 0  1.091315479755366 2.44965514014893 0  1.024103073242107 1.485231137654558 0  1.091268073330427 1.213602378001351 0  1.875 0 0  1.875 3 0  0.125 3 0  1.85164596646159 1.239574888136519 0  0.5144737921873372 1.618478755254639 0  0.789902825397775 1.213881397553005 0  0.7871809298881783 0.3737161797805977 0  1.096901857517183 0.2870816670855633 0  0.8110918697082464 2.584047356465716 0  0.9744132373451575 2.651779594380161 0  0.9648544366790877 2.842449488677214 0  0.625 0 0  0.5537257935489299 0.1460342872932163 0  1.7705015452388 2.843516086018942 0  0.2713847131997923 1.821813683845335 0  1.671841286637515 0.4171978006585984 0  1.280104727509329 2.845993023801107 0  0.5072888412610886 2.735536974420782 0  1.875977913857691 1.59375 0  1.401867863809804 0.3303526277085793 0  0.125 0 0  1.087945285896537 1.911207589900836 0  0.5539485640670052 0.8506752587845635 0  1.802031380552774 2.583004008860892 0  1.247745080385359 0.5925801107113228 0  1.846532469172136 0.9514635756358938 0  0.5153558527085855 0.3136387920935104 0  1.259950669466945 2.655447264867863 0  0.3543785282176074 2.102738236554382 0  0.1206765555899243 1.96875 0  0.4171673824311519 1.94679909469644 0  1.341725400962083 0.8616865987507794 0  0.854245297200512 1.73446714966294 0  1.266296445207783 1.476175406081331 0  0.7308144723714898 0.1432494811275388 0  0.1053667300439123 1.03125 0  0.1883996934132187 2.095616965421765 0  0.768270499960176 2.857490829759849 0  1.872206565425325 2.315809268737681 0  0.605673697931064 1.748526679480376 0  0.8134983007371885 1.597494620919787 0  0.7117096079616703 1.491055883497182 0  0.1027173614314198 0.84375 0  0.7128018016146636 2.308840771762036 0  0.1027094327320722 1.21875 0  1.421885244136567 2.869709256359061 0  0.3030107335519462 1.40771559083607 0  0.1294370239590212 1.816488826586231 0  0.1046314960532825 2.340260612134282 0  0.3066854642776671 0.8393938660272582 0  0.529850680728582 2.204447295200468 0  0.2974747181276535 2.338478572792295 0  0.100880635356019 2.53125 0  0.1038707739568649 0.6527523034992539 0  1.863094387268916 0.5487629667361756 0  1.290517272107038 2.131470167148579 0  1.52111741644401 2.157338416251437 0  1.464641663798353 2.337208835657457 0  1.281373773327221 0.1357872200263505 0  1.100886779012995 2.145731672614935 0  0.4928959427886405 0.6317006424650523 0  0.1060944877986065 0.2925173789259402 0  0.875 3 0  1.625 3 0  0.2831533857306817 1.592870651929527 0  0.09446486974618326 1.59375 0  0.1003055413557448 0.4622840038043601 0  0.3012082573901707 0.6364451147081118 0  0.09395132912287625 1.40625 0  1.864428922933186 2.097152368249048 0  1.075790964199689 0.9639927685251957 0  1.577647454334931 1.364983118044755 0  1.628153344277988 2.404788350306467 0  1.167077918760056 1.058552924814679 0  1.074739275689835 1.681406025969635 0  1.148987566563863 0.8222984211808768 0  1.306654321632048 1.041166548652151 0  0.9081130845912743 0.4320037560380569 0  1.737437621288794 1.559740937438288 0  1.383346867833016 0.7387963733691006 0  1.375 0 0  0.8103372716496738 0.2459264405828014 0  0.3210031681523711 1.2276684776974 0  0.3413174941012037 1.032568939725027 0  1.736806510857051 2.085914365958977 0  1.681325946641243 0.7465125094501177 0  1.876398417646562 0.1344843882356253 0  1.358990329084177 1.218033987372085 0  1.495613030057731 1.915663152891221 0  1.895663085261757 0.8297047254494576 0  0.6211324108585357 0.569808241175043 0  1.11972651515424 0.6140269112896967 0  1.183436751467553 0.377915048179126 0  1.030338608984736 0.3934222752119882 0  0.7763722399334972 2.085428896480006 0  0.9995343277854785 0.1813115376207536 0  1.375 3 0  0.875 0 0  1.625 0 0  1.125 0 0  0.625 3 0  0.375 0 0  0.375 3 0  1.125 3 0  0.7043160420037512 2.750032606584533 0  1.300621845436222 1.781043998964619 0  0.1197771551622881 2.868065229891808 0  1.709085611581005 2.310552442506958 0  0.90539088267281 1.16540809825354 0  1.689559846240368 1.003240252671143 0  1.893127565596496 2.499519646159833 0  2 0.28125 0  1.673576840463066 0.2634794911438599 0  0.2909513983845114 0.4715422116238709 0  0.8306437486451163 0.9071799064847175 0  0 2.15625 0  2 0.65625 0  1.647615107768551 2.170843453709399 0  0.1234053348441461 2.65967874202093 0  0.3045785620803027 2.701846039693036 0  0.2418977276602471 2.877763189539751 0  0.6645594122709834 0.3884004847932273 0  1.173565072488407 2.356569317260697 0  1.72214809056434 1.808050877895925 0  0.7333281117019459 0.669002473049245 0  1.225238049542525 2.5368112091
[...]
<PointData  Scalars="f_8576"> 
<DataArray  type="Float64"  Name="f_8576"  format="ascii">0.0000000000000000e+00  0.0000000000000000e+00  0.0000000000000000e+00  0.0000000000000000e+00  0.0000000000000000e+00  0.0000000000000000e+00  0.0000000000000000e+00  0.0000000000000000e+00  4.9371355486157524e+00  2.5875525102868049e+00  0.0000000000000000e+00  0.0000000000000000e+00  0.0000000000000000e+00  0.0000000000000000e+00  4.2203917143915994e+00  0.0000000000000000e+00  0.0000000000000000e+00  0.0000000000000000e+00  0.0000000000000000e+00  5.3352266079408928e+00  2.0582473651234010e+00  1.5184506123160486e+00  6.4590351851000474e+00  2.2889303257108762e+00  8.9436531894945970e-01  0.0000000000000000e+00  0.0000000000000000e+00  4.4027553886511619e+00  0.0000000000000000e+00  0.0000000000000000e+00  2.0264900039419094e+00  0.0000000000000000e+00  9.7283004860953315e-01  6.2725869023234866e+00  8.2465394907164080e-01  2.3742438030971171e+00  5.4558517164548814e-01  5.5450408415874053e+00  0.0000000000000000e+00  0.0000000000000000e+00  0.0000000000000000e+00  4.7215922322903969e+00  2.2526019348720800e+00  5.7453219179838104e+00  6.1175837589661963e+00  3.9762264933114466e-01  2.3045418272056761e-01  3.6213093912459278e+00  4.3965082900899546e+00  -1.8052729633734410e-01  -6.9240851326438924e-02  0.0000000000000000e+00  0.0000000000000000e+00  2.1813364922880094e-01  7.6850408853064034e-01  2.0323605450860032e+00  3.6890723637242750e+00  2.0485287853940100e+00  4.0680457622379693e+00  3.0430407199936849e-01  4.1673459922129270e+00  5.7657318290294732e+00  2.8801931883686200e+00  5.4300759476522789e+00  5.0877418368348595e+00  1.1757464400243005e+00  0.0000000000000000e+00  4.0099764423494350e-01  3.3875870518855891e+00  2.9572678074527337e-01  1.6011329498390572e+00  4.1059093233003372e+00  4.8630178813021772e+00  0.0000000000000000e+00  3.6303970385149795e+00  3.2747827594473713e+00  0.0000000000000000e+00  0.0000000000000000e+00  0.0000000000000000e+00  0.0000000000000000e+00  3.5783121173352499e+00  1.3453277704324396e+00  6.2052672882145448e+00  5.1595275758001002e-01  -2.3118718198252017e-01  6.9595483498544303e-02  0.0000000000000000e+00  1.9117228887860966e+00  1.6066960100698580e+00  3.4941511355172743e+00  0.0000000000000000e+00  2.9405462947625999e-01  4.8947640223201097e-02  0.0000000000000000e+00  5.3690264668965462e+00  -4.4166988249986350e-01  5.4145556495036128e-02  3.6827929214372457e+00  5.1395006753610435e+00  1.2703162777728314e+00  1.8715364895218460e+00  2.9792368854296183e+00  0.0000000000000000e+00  4.7723859551583914e+00  6.1115325419330491e+00  6.5241272022309049e+00  2.0341978911186032e+00  1.9755103887272889e+00  3.3085307425106234e+00  6.1125212829137130e+00  2.7923556634577560e+00  8.5443951820102770e-01  5.4507715156322005e+00  4.7701368640623567e+00  2.0188060314254423e+00  5.4371363754726314e+00  5.1338621625319600e+00  1.4306360087978836e+00  -1.7142307871117957e-01  0.0000000000000000e+00  9.4047453268417303e-01  1.0102646991216049e+00  -3.7916841899053977e-01  0.0000000000000000e+00  4.3459169253975398e+00  3.1221467871609638e+00  5.7081014392112674e+00  0.0000000000000000e+00  0.0000000000000000e+00  0.0000000000000000e+00  0.0000000000000000e+00  0.0000000000000000e+00  0.0000000000000000e+00  0.0000000000000000e+00  0.0000000000000000e+00  0.0000000000000000e+00  0.0000000000000000e+00  -2.2633322497420294e-01  3.2010464661824090e+00  1.5489466054939494e+00  4.6641889259859841e+00  1.9640133350985294e+00  1.1797789573987454e+00  2.4531033452974298e+00  1.9999410588243074e-01  5.0798210536531547e+00  5.7006207318671187e+00  3.0321305419871131e-01  2.5565755809206094e+00  5.9489155049925424e+00  8.5109041398330243e-01  1.0344139302038795e+00  2.7417716180361578e+00  3.6704784263758268e+00  3.0721761002179853e+00  5.7452818105618917e+00  8.2894109934670923e-01  -2.1967078417338576e-01  4.1427677707191748e+00  3.8317853506625283e+00  -5.3075696385698035e-01  -6.8046615411009459e-01  3.0118611708678733e+00  2.5530186789804801e+00  2.0966635083300469e+00  5.9524275110894487e-01  8.6027046317424871e-01  6.1925555922079987e+00  5.4394732335027285e-01  5.3566880794227778e-01  1.2422441346586812e+00  6.4875008230893014e+00  1.0017487330297967e+00  1.1923305742008010e-01  1.4301124813457093e+00  4.4227031882224415e+00  4.3970173561623165e+00  0.0000000000000000e+00  0.0000000000000000e+00  0.0000000000000000e+00  -6.8720049423260332e-01  5.2519848878577733e+00  5.7487824421073261e+00  4.5554409911163978e+00  3.0072174263330584e+00  8.7626114690320289e-01  6.1692539694306370e-01  -8.6987646214841258e-02  0.0000000000000000e+00  3.0420257244312885e+00  1.2086159920370280e-01  4.0674017601701262e+00  1.6725293169262714e-01  7.0232692640092687e-02  1.1595506917846883e-01  -4.8626489648750276e-01  1.6366876968187787e+00  0.0000000000000000e+00  3.2247768852728380e+00  6.4259922865609012e+00  2.4612463283748653e-01  3.0319383161962259e+00  -7.9073534520792643e-01  4.5985511261019187e+00  6.3344517088866759e-01  3.0051729625172316e+00  2.4530633106991959e+00  3.8310556072954030e+00  2.6957106969024158e+00  4.3840156272241124e+00  3.2040650477211914e+00  2.9060902774533917e+00  4.1432089531511807e+00  2.5212350338381975e+00  -2.1112617050596455e-01  5.7756092127674630e-02  4.7222524630732208e+00  4.8939434138036564e+00  5.4252902210177467e+00  4.0260023050483777e+00  2.1819026004445568e+00  3.9490612407537125e+00  7.7684227805541919e-02  5.6618350705343907e+00  3.0551945594747854e+00  1.1290421990898607e+00  6.2346708027675710e+00  2.6660712979760883e+00  1.7866924938427746e+00  5.8481884977259169e-01  3.7713579615376385e+00  -7.2670948816895975e-01  2.0773777859328848e+00  1.2834851144908239e+00  1.2117364741866667e+00  1.4795116539581792e+00  2.4939452243597096e+00  6.0717592012235357e+00  2.5152965706743973e+00  0.0000000000000000e+00  0.0000000000000000e+00  5.0030158893302570e+00  3.1031421408744699e+00  3.1673382713873930e+00  5.8034194892832316e+00  3.4740966951189098e+00  -5.1075867198243072e-02  4.5076842834358430e+00  1.1383707858172072e+00  7.2191833902155311e-01  3.9795299830588600e+00  3.8325801537206527e+00  3.9662902177502355e+00  3.0443670879058464e+00  4.3956048558392329e+00  1.2609439164509445e-01  2.2914091153248810e+00  0.0000000000000000e+00  3.7369998302417082e+00  6.1296991275078643e+00  6.4046544690363554e+00  4.1916830880824457e-01  1.0249990334293099e-01  -2.0934943771219805e-01  2.7049675868247847e+00  1.5960195554588557e+00  -8.5129726207660861e-01  5.7401580750127730e+00  3.8499202530973116e+00  2.9298330861605932e+00  3.7314750613021412e+00  3.1815928382124752e+00  2.7225222357302985e+00  0.0000000000000000e+00  0.0000000000000000e+00  0.0000000000000000e+00  0.0000000000000000e+00  0.0000000000000000e+00  0.0000000000000000e+00  0.0000000000000000e+00  0.0000000000000000e+00  1.0430067202194448e-01  2.6790230105543125e+00  -6.8312453930984743e-02  5.3822608583599352e-01  5.3500664656292045e+00  1.2579809576617937e-01  8.0588257542533973e-02  0.0000000000000000e+00  1.9848740881445823e-01  5.1220651889278956e+00  5.6982736412913555e+00  0.0000000000000000e+00  0.0000000000000000e+00  7.9267343752440877e-01  3.1082925267610340e-01  2.4064140318852509e-01  -1.7002320461868850e-01  4.9130319106422800e+00  1.6874366609603431e+00  3.7218219437397820e-01  5.7311159772543849e+00  1.0394018136741967e+00  1.1505180089104081e+00  1.4935777913682429e+00  -2.7817848304754972e-01  6.3924741551375979e+00  6.2663534363584343e+00  1.8152600313957985e+00  -1.7298551281829302e-02  -6.8154325571043473e-01  1.8819481999154763e+00  7.1317501160417307e-01  3.7816018610774869e+00  0.0000000000000000e+00  6.8757600006433356e-02  2.6069587266668082e+00  6.1860698635645617e-01  9.8361692658135069e-01  1.6264417100797022e+00  6.2506071339495117e-01  -8.2225885328597570e-01  9.2996488287283863e-01  2.4591877650519181e-01  2.3450580135132766e+00  1.9574303110442974e+00  1.0754457016608276e+00  5.1083577807781277e-01  2.2892596332007273e+00  0.0000000000000000e+00  6.0198742762853419e+00  1.4647389888345512e+00  5.2636473760178340e-02  6.0412439719517907e+00  4.2765981070052241e+00  2.0823918151305141e+00  0.0000000000000000e+00  3.5084054053328360e+00  6.0177489343261730e+00  1.0126644903254267e+00  4.8664166216231495e+00  -4.9370027420802448e-01  -5.0824182461870655e-02  4.6150491198714958e+00  5.4036006784185266e+00  2.5022896139710982e+00  -8.9790057105189919e-02  -1.5150753110970061e-01  4.2741677349750562e-01  -1.7881198839629572e-01  9.7509566963145639e-02  1.6753570214296580e+00  3.7183380239819543e+00  1.8723829524696445e+00  4.0409667972872105e+00  4.0617509400651644e+00  0.0000000000000000e+00  -2.6597313730317579e-01  6.3353759433234078e+00  1.5930851242443764e+00  2.0966177410713658e+00  5.2333457225595641e+00  4.8723751967335325e+00  4.9659995057881190e+00  5.1673807003536876e+00  4.6445620683233422e+00  4.6522694529305317e+00  3.3830418713436248e+00  4.2476359988870221e-01  8.0558812717900896e-01  4.7378257767568179e+00  5.1511043756987744e+00  1.6444250367982931e+00  1.3527768607955180e+00  1.0043497445849774e+00  3.9509873370644655e-01  4.5780597044039819e+00  3.3932399179047215e+00  3.7927454762753152e+00  3.2194224426892730e+00  1.5752322956387415e+00  2.4536608380519334e+00  1.9305273740433577e+00  -2.1003017341177277e-01  8.1843584126771202e-02  1.6787764236536447e+00  1.4296338417769103e+00  2.1356810309207948e+00  1.5255868288107199e+00  1.3642617367405563e+00  4.1213922558032161e+00  8.3247267167698674e-02  1.3499022840391772e-01  0.0000000000000000e+00  3.3271321349505310e+00  6.4750468780000565e+00  2.8616710944399841e+00  3.8673370765138047e+00  1.7747022567878288e+00  2.4847605492639220e+00  6.5385681957490611e+00  -3.0096751848909264e-01  5.9481821118690759e+00  2.3214496941400897e+00  -2.8264341980510294e-01  7.7552267845514361e-02  5.3912378293471264e-01  -2.2494830661719012e-01  -7.9449332897107638e-01  3.3540801009475709e+00  2.9774786948531347e+00  3.7757548105968959e+00  2.6875076823815194e+00  6.3363945064195821e+00  6.3153803665217474e+00  5.8536525951396792e+00  5.0358213755887249e+00  6.0628456837961915e+00  5.5662832821257258e+00  5.2354626668670523e+00  4.9132851417743204e+00  4.0537526698752144e-02  9.8566075155379573e-01  1.8298686266522313e+00  2.0278696544590105e+00  5.0034018662047615e+00  4.3323197301273844e+00  -5.8923257292359532e-01  8.6844674060076466e-01  1.5599682969913682e+00  1.7403164325780929e+00  9.1721055868756796e-01  1.6948221407033472e+00  1.3471583491151786e+00  4.1460303122546662e+00  4.8937077348204614e+00  4.1528624173672632e+00  2.2243958215874682e+00  3.2895835686033426e+00  -5.9490797932660155e-01  3.4070279825922939e-01  1.8804206411778766e+00  -4.1837571872333879e-01  -2.0017286036854015e-01  2.3950249610073510e-01  8.1161093752696900e-01  3.7521871530094093e+00  2.6772719976047260e-01  2.3685020266587681e-01  3.3560178109359948e+00  5.7311124336950057e+00  6.4995500575221665e-01  2.3144111108910272e+00  2.3848700387833808e+00  1.5319167811676526e-01  2.7877736655844694e+00  5.7797815190535271e+00  4.4378279839899957e+00  3.1631618304185465e+00  1.2505880490860399e+00  4.9291275807528706e-02  4.1803076164304986e+00  6.0334794297578531e+00  9.7447266484537431e-01  3.8310770647197367e+00  4.4653363437312663e+00  1.3589860668249241e+00  3.2901960485561554e+00  0.0000000000000000e+00  0.0000000000000000e+00  0.0000000000000000e+00  0.0000000000000000e+00  0.0000000000000000e+00  0.0000000000000000e+00  0.0000000000000000e+00  0.0000000000000000e+00  0.0000000000000000e+00  0.0000000000000000e+00  0.0000000000000000e+00  0.0000000000000000e+00  0.0000000000000000e+00  0.0000000000000000e+00  0.0000000000000000e+00  0.0000000000000000e+00  0.0000000000000000e+00  0.0000000000000000e+00  0.0000000000000000e+00  0.0000000000000000e+00  0.0000000000000000e+00  0.0000000000000000e+00  0.0000000000000000e+00  0.0000000000000000e+00  -7.5946111045397313e-01  6.3600231084568897e+00  -6.0413940794853203e-02  5.7234213475460152e+00  5.5797348831129385e+00  5.4158273704740392e+00  5.3407942492229692e+00  5.2717353014997963e+00  3.0634778885207443e+00  2.4110334349185951e+00  2.3966461683862246e+00  5.3725194985366205e+00  -5.9242152850684993e-01  4.7733245271984295e+00  2.6154485401429746e+00  7.8490993626526495e-01  8.2136693603022143e-02  6.7224724492213603e-02  1.6975695671326356e+00  1.1057887963023463e+00  2.0804222958763514e+00  1.4420162637061540e+00  7.1467333619886853e-01  8.8817389702508931e-01  6.0071707202183067e+00  5.3865358408979009e+00  6.0172252568486284e+00  2.6182956140045559e+00  1.4971435080377742e+00  1.6390852370339877e+00  3.3312362346313069e+00  7.6546098744030666e-01  5.8629982095924138e-01  6.8086475307544458e-01  5.4094763070140104e+00  5.4141961934713283e+00  5.7164131575703614e+00  6.3296285377251067e+00  6.0128457832719855e+00  4.1819896554297422e+00  3.6368284812314049e+00  1.4510751131764772e+00  1.9614161590880227e-01  3.6130302354182953e-01  5.8951627988785020e+00  -5.0340030528814486e-02  -5.8309872700444654e-01  1.9090613477386043e-01  -2.1106264030006552e-01  1.2521644437767335e-01  -3.5022021405201376e-01  4.3817901955619938e+00  -2.7169381256786146e-01  3.8515257006769583e+00  4.2460142440776041e+00  1.6837160710389290e+00  -4.6643646196950778e-01  3.3386340955080498e+00  9.6491548359344981e-01  4.6241661139664614e-01  8.8100559490211727e-01  4.4711707785530379e+00  3.5863749555202129e+00  2.7718961543137617e+00  1.7035172626662396e+00  3.2624969173208278e+00  3.8748266538727174e+00  -7.0364179953686312e-01  5.3130136061220856e-01  -5.8384519041247834e-02  2.9821238815729831e+00  -7.7155187903305444e-01  3.4977213321621248e+00  2.8581589535655909e+00  3.3143098130369517e+00  2.7680145565772212e+00  4.4380714809701711e+00  1.6457904629388211e+00  0.0000000000000000e+00  4.6705607861684495e+00  4.4390164556022249e+00  4.0733351324480731e+00  4.9561032973656793e+00  9.2976202350131798e-01  2.8669202935681763e+00  3.8249349530153715e-01  2.5445069941053293e+00  4.5774220293411449e+00  6.2099018731421145e+00  5.4580793030192334e+00  5.7025064528161380e+00  2.5659320135613726e+00  5.3046762910889855e-01  5.2596462167870621e+00  1.7517992191388414e+00  1.7465749215480981e+00  2.0223122354280978e+00  -1.3123408439779494e-01  -2.0322143042414936e-01  2.7243943961165829e-01  1.0741686215395172e+00  6.3506745137832010e-01  4.1761999501921016e-01  3.4359944473357147e+00  1.0653878504107861e+00  2.6263411860085268e+00  3.8811404142318060e+00  1.1299216040368838e+00  1.2160481133851697e+00  4.9242141019105343e+00  4.3002969102773934e+00  3.7934845876521089e-01  3.0058224985090110e-01  5.7179601066763985e-01  9.4676554515759781e-01  2.7555464776641938e+00  6.2312751825907418e+00  -2.9493798694779594e-01  -6.9010514277315083e-01  -3.0744628246980998e-01  -4.9198401394613284e-01  4.6794569273812918e+00  -3.7183798370796639e-01  5.4396790813899987e+00  2.8963486659547549e-02  1.9087502819247175e+00  2.3205562837101379e+00  6.5249098220011881e+00  3.5037679569375890e+00  2.9073510822997690e+00  -3.0876510463257334e-01  5.0394706011379464e-01  2.8850599485445810e-01  3.7595707519497706e-01  2.2835977776651398e-01  1.7654897266683373e-01  4.7478551426628449e-02  2.0305297398436992e+00  4.7560086593180460e+00  -1.4138468558348560e-01  -2.5522939460159644e-02  -1.6781376134101429e-02  6.2632748633589603e+00  1.8729277901005055e+00  0.0000000000000000e+00  1.9834031535804986e+00  1.3366535802253852e+00  8.9020502309114191e-01  3.9760369450025066e+00  5.7229190875463865e-01  1.7700803858669263e+00  4.9676717677033189e+00  5.0612334542766666e+00  4.1806696866497886e+00  6.3640120735121464e+00  6.2932609448191545e+00  3.7966935002536606e+00  9.0925736633563708e-02  6.4949848324112374e+00  5.8316132198508424e+00  4.2150500146121948e+00  1.5418406573030647e+00  4.9463606857437131e-01  1.2197273083964748e+00  -6.2933294866569944e-01  2.9899433234600021e+00  4.0274367698734421e+00  3.7581596429920165e+00  5.8243281693318459e-02  -3.2723236085255031e-01  -8.2747370959215349e-01  1.3292522556588613e+00  1.1976987242487092e+00  4.1884022930869005e+00  4.4721833486964906e+00  2.3633031089466057e+00  2.0091684020903791e-01  1.4603265386277999e+00  4.0318199986214713e+00  -1.0035067385183544e-01  0.0000000000000000e+00  8.4438012172466159e-01  0.0000000000000000e+00  3.1968439396709142e-01  0.0000000000000000e+00  -3.8609798911505644e-01  -4.3910996239961492e-01  5.7480857937808398e+00  1.6293433232435175e+00  6.0048065316918793e+00  5.4765865486028069e+00  5.7816508921921486e+00  1.3289068655869363e+00  8.7941325256385239e-01  -2.3453675128791895e-01  -4.3930406425948247e-02  1.1759957082371011e+00  -5.9563580211869427e-01  6.3341327887602201e+00  2.7042644088396082e+00  2.6371990260101441e+00  3.4447937562818751e+00  3.3951604291450366e+00  5.1750713144679770e+00  4.5768405994019599e+00  4.9356288188365877e-02  3.3017260339651506e+00  5.5982675779511826e-01  1.9675521826568640e+00  1.1274610257953672e-01  4.2080806282337875e+00  3.0721080316619434e+00  2.1840617065191501e+00  2.9227552619894928e+00  4.2678544096290588e-01  7.1695907329528819e-01  4.0669026490946569e+00  -1.8106065737084365e-01  1.8796862534726740e-02  1.6476223813757027e+00  3.2848536434309157e+00  3.4856543023768599e-01  -1.2342759313152307e-01  3.4097941705888740e-01  4.0145742107306832e+00  2.5462216048760968e+00  5.6650726497366728e+00  7.4685348657684858e-01  3.2069341086655783e+00  3.5249511727616549e+00  -2.5554618872219675e-01  9.4911726123957196e-01  1.2917749541917389e+00  5.1023096136063613e+00  3.4168256984755354e+00  5.0349601351467177e-01  3.1697195408167382e+00  3.5407495599166401e+00  2.3130549648362337e+00  6.3804992616810221e+00  4.4675662808383709e+00  -1.4839205217995674e-01  1.3722990418005554e+00  4.0277676351932099e+00  2.6828048203285437e+00  8.5275070268034825e-01  2.1258178715185014e+00  2.9033794829425457e+00  5.1533919223349400e+00  2.4953946820282189e+00  6.8139178182655713e-01  5.6033763776932721e-01  4.4518043533053575e+00  4.4863141494819718e+00  4.7124303470462685e+00  2.2339983974033525e-01  1.3683385008223359e+00  2.7447648913154712e+00  5.4469915637978215e+00  3.4709871277031703e+00  2.7304133846414040e+00  -5.2913185665466024e-02  2.9828257031734986e+00  2.1925871309268121e+00  1.1629833004109724e-01  -5.6005287501679060e-02  -2.2205304902587583e-01  -4.1825004818344724e-02  5.3706729562013962e+00  -4.7307987077059376e-02  3.4129674637691774e+00  5.3618290808414821e+00  3.2912568792839880e+00  9.8215553997377347e-01  -6.2608316998449309e-01  5.8820371721614935e+00  4.8903556418186280e+00  3.6832415168354227e+00  3.6497344570017276e+00  1.9300656971895507e+00  1.9704821216295929e-01  2.0619371315591088e+00  2.2655132575458379e+00  4.8174544372962496e+00  4.0573322885049761e+00  2.8477403894062387e+00  2.6051281067831282e+00  2.6656426615084977e-01  2.2638706130309045e+00  2.1573334403012181e+00  1.8682573067397867e+00  2.5464058099262887e+00  -2.3576373180368211e-02  7.4444021357864973e-02  1.4610402195991854e+00  5.5367933622718626e+00  3.2972290380739340e+00  4.4890197729257464e+00  2.0049589676144057e+00  1.0483982526784033e+00  1.0898761393609513e+00  1.4833524868446195e+00  9.8820184145827639e-01  2.8266460643420359e+00  4.9204659464096459e+00  4.9297069101973534e+00  2.4120690678672103e+00  3.1768614716055676e+00  2.9085898854301471e+00  -4.3655484084827922e-01  1.3158659235862089e-01  5.2759611440066383e+00  5.9269485331795817e+00  3.3486378543934653e-01  -2.1780539157971342e-02  0.0000000000000000e+00  -4.9238975729685480e-01  1.7898698976239427e+00  1.5621452719602751e+00  1.1904328700765310e+00  2.0219519527246756e+00  5.9068153212247374e+00  6.0374207729640936e+00  6.4256211650435011e+00  3.0031474124791613e+00  2.3378862969034793e+00  -2.1285219200907719e-02  3.6098282007281846e+00  4.1049305202142117e-01  2.7449033954566131e+00  -3.6354534414767414e-01  1.6281202518112492e+00  5.5454425771163782e+00  2.9062561397813941e-01 