<?xml version="1.0"?>
<VTKFile type="UnstructuredGrid"  version="0.1"  >
<UnstructuredGrid>
<Piece  NumberOfPoints="14566" NumberOfCells="28705">
<Points>
<DataArray  type="Float64"  NumberOfComponents="3"  format="ascii">0 3 0  0 0 0  2 0 0  2 3 0  2 1.5 0  0 1.5 0  1 0 0  1 3 0  1 1.083333333333333 0  1.1875 2.041666666666667 0  0 2.25 0  2 0.75 0  0 0.75 0  2 2.25 0  0.546235380116959 1.875 0  0.5 0 0  0.5 3 0  1.5 3 0  1.5 0 0  0.75 0.5416666666666666 0  1.397727272727273 0.6098484848484849 0  0.7400140009560829 2.446414029671393 0  0.4305555555555555 1.125 0  1.413194444444444 1.5 0  1.511633211678832 2.466088807785888 0  2 1.125 0  2 1.875 0  0.9531937950269089 1.626186072001953 0  0 0.375 0  0 2.625 0  1.446040104181028 1.054219142057518 0  2 0.375 0  1.613091388971457 2.052622604569185 0  0.3978050788698214 0.7279316172646906 0  1.122034767567557 2.604844747138268 0  0.3976808956026018 2.243942213143948 0  0.4013368467572315 2.628399882254177 0  0.3915890028118316 1.51493140652058 0  0 1.125 0  0 1.875 0  2 2.625 0  0.3745170793253871 0.3535227724338494 0  1.25 0.271574440052701 0  0.7159977215410738 1.350437455814274 0  0.7085197291365257 0.8893370480908342 0  1.706597222222222 1.6875 0  1.696549685796197 1.296777466148165 0  0.8698085846740859 1.947017983326575 0  1.057825596389426 0.7281189555125724 0  1.726188774537831 0.5625 0  1.710431770995195 0.8791872695688975 0  1.75 0 0  1.75 3 0  0.8440250195969674 2.735409186889472 0  1.557361044457889 0.3036611226867964 0  1.021382495358583 2.307750712964459 0  0.9438037150343664 0.3025888941184255 0  1.422209083254015 1.809204266327822 0  1.1296651354649 1.367957652701011 0  1.705681205609129 2.699620803739419 0  0.6535540818054447 0.2653941918737499 0  0.2152777777777777 0.9428714285802794 0  0.6764082332685148 2.163317662154022 0  0.2152777777777777 1.300399603586393 0  0.6738797158697101 1.626558021437488 0  0.2022665791879026 2.438046698110248 0  0.25 3 0  1.38627383238228 2.730439726544761 0  0.2731176900584795 1.979408052870387 0  1.788988139129612 2.433013002880604 0  1.395884399116 2.218504617781978 0  0.1889297394923665 1.6875 0  0.1980492074855439 0.5524276374026066 0  0.25 0 0  1.21434773979559 0.9359132279393747 0  1.162660410385986 1.781867069461707 0  1.25 3 0  0.75 0 0  1.25 0 0  0.75 3 0  1.116873502935106 0.4842556563055509 0  1.277400787068369 2.424746368423087 0  0.6657421642148181 1.120641644021926 0  0.6306361732889977 2.648994399124817 0  1.794501480514241 0.241165679657173 0  0.1995152701183739 2.762823153254418 0  0 0.1875 0  1.470025947155241 1.280086929735272 0  1.484570527100927 0.8252183799387092 0  1.242989691626331 1.165848469786021 0  2 2.0625 0  1.778024971434719 2.207218987747306 0  1.808812959484196 1.96875 0  2 2.8125 0  0.5594399178162468 0.4532199053554985 0  1.780142342986769 1.09053052213301 0  1.125 2.822181958293781 0  1.15437464724632 1.574257741882416 0  0.9258053099401093 1.28898157144858 0  0.9414800874564364 2.500417763956405 0  1.411666711023481 2.014022948820662 0  0.2133789240500979 0.2115885654001305 0  2 0.9375 0  0.3965527976610288 1.72604344321965 0  0.608995122443001 0.7011531686631721 0  0.4138123102177461 0.9264961621055305 0  0.5749863647331368 2.334798630725083 0  0.1987198992492864 2.239057349078047 0  0.4984282205902797 2.070129278380434 0  0.4102452351893879 1.319883055253778 0  0.8831982801865097 2.153602641944079 0  1.623548628757152 1.494145162716432 0  0.2033775143403518 0.7477945287866119 0  0.1940536105539605 1.49340186742834 0  1.202090490568975 2.235671565210217 0  0.8466070242559173 0.7295024517030759 0  0.9532944875716811 0.8934161868796685 0  0.3945591291744741 2.436218116639167 0  0.390119492358766 2.83027622360013 0  0 2.0625 0  1.588911207098181 2.279111216118611 0  1.611152302833269 1.857591555864952 0  1.812477793912983 1.451840609478801 0  2 1.3125 0  0.7299720177885035 1.812388578202914 0  0.3990727621832508 0.1632073431396914 0  0.3931607960443144 0.5402918167664157 0  0 2.8125 0  0 1.6875 0  2 2.4375 0  0 2.4375 0  0 1.3125 0  0 0.5625 0  0 0.9375 0  2 0.5625 0  2 1.6875 0  2 0.1875 0  0.625 2.846709428529378 0  1.253682590775686 0.7434363360896369 0  1.523086796648675 1.651807599666824 0  0.9411304688418869 0.5621263133613359 0  1.125 0.1357872200263505 0  1.41562649854122 0.1731862647719977 0  1.300240745075605 0.4510277883928345 0  1.555879490833153 2.817654319666713 0  0.863104561805179 1.463788789510293 0  0.572634432547554 1.469842074183063 0  1.642240545166245 0.1445731778058382 0  0.875 0.1332980020323718 0  0.2487211794256408 1.121635516083336 0  1.573217117267048 0.6642797787692021 0  1.532509884912857 0.4854117220234143 0  1.318319980339258 1.657499541059452 0  0.6967186728143467 1.986865355086986 0  1.301817177279576 1.331659278786805 0  0.8248882106199859 1.030466229808272 0  1.605750972809839 1.139912728256475 0  1.843199325955406 1.797053511030686 0  0.2063238460867002 0.3820355271287071 0  0.9827851948228239 1.80512896198594 0  1.826970058610837 0.415996684272712 0  1.815548982041781 0.725681816908465 0  1.014647505823572 2.041356564123892 0  1.284408782125187 1.904792104550927 0  0.8525918307249374 2.320050269794524 0  0.2372387727050605 2.600742842596934 0  1.373827344559335 2.562638247702516 0  0.5704448974488513 1.261876095074753 0  1.538823098639072 2.640881839270544 0  1.660201480254432 2.532489581187561 0  0.587112621207044 2.494677032146202 0  0.5461561799319455 1.015291367624069 0  1.572288330999834 0.9577191413849884 0  1.867150148288836 2.71875 0  1.091315479755366 2.44965514014893 0  1.024103073242107 1.485231137654558 0  1.091268073330427 1.213602378001351 0  1.875 0 0  1.875 3 0  0.125 3 0  1.85164596646159 1.239574888136519 0  0.5144737921873372 1.618478755254639 0  0.789902825397775 1.213881397553005 0  0.7871809298881783 0.3737161797805977 0  1.096901857517183 0.2870816670855633 0  0.8110918697082464 2.584047356465716 0  0.9744132373451575 2.651779594380161 0  0.9648544366790877 2.842449488677214 0  0.625 0 0  0.5537257935489299 0.1460342872932163 0  1.7705015452388 2.843516086018942 0  0.2713847131997923 1.821813683845335 0  1.671841286637515 0.4171978006585984 0  1.280104727509329 2.845993023801107 0  0.5072888412610886 2.735536974420782 0  1.875977913857691 1.59375 0  1.401867863809804 0.3303526277085793 0  0.125 0 0  1.087945285896537 1.911207589900836 0  0.5539485640670052 0.8506752587845635 0  1.802031380552774 2.583004008860892 0  1.247745080385359 0.5925801107113228 0  1.846532469172136 0.9514635756358938 0  0.5153558527085855 0.3136387920935104 0  1.259950669466945 2.655447264867863 0  0.3543785282176074 2.102738236554382 0  0.1206765555899243 1.96875 0  0.4171673824311519 1.94679909469644 0  1.341725400962083 0.8616865987507794 0  0.854245297200512 1.73446714966294 0  1.266296445207783 1.476175406081331 0  0.7308144723714898 0.1432494811275388 0  0.1053667300439123 1.03125 0  0.1883996934132187 2.095616965421765 0  0.768270499960176 2.857490829759849 0  1.872206565425325 2.315809268737681 0  0.605673697931064 1.748526679480376 0  0.8134983007371885 1.597494620919787 0  0.7117096079616703 1.491055883497182 0  0.1027173614314198 0.84375 0  0.7128018016146636 2.308840771762036 0  0.1027094327320722 1.21875 0  1.421885244136567 2.869709256359061 0  0.3030107335519462 1.40771559083607 0  0.1294370239590212 1.816488826586231 0  0.1046314960532825 2.340260612134282 0  0.3066854642776671 0.8393938660272582 0  0.529850680728582 2.204447295200468 0  0.2974747181276535 2.338478572792295 0  0.100880635356019 2.53125 0  0.1038707739568649 0.6527523034992539 0  1.863094387268916 0.5487629667361756 0  1.290517272107038 2.131470167148579 0  1.52111741644401 2.157338416251437 0  1.464641663798353 2.337208835657457 0  1.281373773327221 0.1357872200263505 0  1.100886779012995 2.145731672614935 0  0.4928959427886405 0.6317006424650523 0  0.1060944877986065 0.2925173789259402 0  0.875 3 0  1.625 3 0  0.2831533857306817 1.592870651929527 0  0.09446486974618326 1.59375 0  0.1003055413557448 0.4622840038043601 0  0.3012082573901707 0.6364451147081118 0  0.09395132912287625 1.40625 0  1.864428922933186 2.097152368249048 0  1.075790964199689 0.9639927685251957 0  1.577647454334931 1.364983118044755 0  1.628153344277988 2.404788350306467 0  1.167077918760056 1.058552924814679 0  1.074739275689835 1.681406025969635 0  1.148987566563863 0.8222984211808768 0  1.306654321632048 1.041166548652151 0  0.9081130845912743 0.4320037560380569 0  1.737437621288794 1.559740937438288 0  1.383346867833016 0.7387963733691006 0  1.375 0 0  0.8103372716496738 0.2459264405828014 0  0.3210031681523711 1.2276684776974 0  0.3413174941012037 1.032568939725027 0  1.736806510857051 2.085914365958977 0  1.681325946641243 0.7465125094501177 0  1.876398417646562 0.1344843882356253 0  1.358990329084177 1.218033987372085 0  1.495613030057731 1.915663152891221 0  1.895663085261757 0.8297047254494576 0  0.6211324108585357 0.569808241175043 0  1.11972651515424 0.6140269112896967 0  1.183436751467553 0.377915048179126 0  1.030338608984736 0.3934222752119882 0  0.7763722399334972 2.085428896480006 0  0.9995343277854785 0.1813115376207536 0  1.375 3 0  0.875 0 0  1.625 0 0  1.125 0 0  0.625 3 0  0.375 0 0  0.375 3 0  1.125 3 0  0.7043160420037512 2.750032606584533 0  1.300621845436222 1.781043998964619 0  0.1197771551622881 2.868065229891808 0  1.709085611581005 2.310552442506958 0  0.90539088267281 1.16540809825354 0  1.689559846240368 1.003240252671143 0  1.893127565596496 2.499519646159833 0  2 0.28125 0  1.673576840463066 0.2634794911438599 0  0.2909513983845114 0.4715422116238709 0  0.8306437486451163 0.9071799064847175 0  0 2.15625 0  2 0.65625 0  1.647615107768551 2.170843453709399 0  0.1234053348441461 2.65967874202093 0  0.3045785620803027 2.701846039693036 0  0.2418977276602471 2.877763189539751 0  0.6645594122709834 0.3884004847932273 0  1.173565072488407 2.356569317260697 0  1.72214809056434 1.808050877895925 0  0.7333281117019459 0.669002473049245 0  1.225238049542525 2.5368112091
[...]
<PointData  Scalars="f_8576"> 
<DataArray  type="Float64"  Name="f_8576"  format="ascii">0.0000000000000000e+00  0.0000000000000000e+00  0.0000000000000000e+00  0.0000000000000000e+00  0.0000000000000000e+00  0.0000000000000000e+00  0.0000000000000000e+00  0.0000000000000000e+00  1.1998781882589258e+01  4.8109204388255389e+00  0.0000000000000000e+00  0.0000000000000000e+00  0.0000000000000000e+00  0.0000000000000000e+00  1.0539086354525933e+01  0.0000000000000000e+00  0.0000000000000000e+00  0.0000000000000000e+00  0.0000000000000000e+00  1.4933270254130125e+01  4.4284529989000943e+00  2.6069986815470294e+00  1.8275532078629610e+01  3.9328410370677394e+00  1.1864835106614657e+00  0.0000000000000000e+00  0.0000000000000000e+00  9.9734220166059622e+00  0.0000000000000000e+00  0.0000000000000000e+00  3.5290226033176757e+00  0.0000000000000000e+00  1.0153864023691159e+00  1.8384602674890242e+01  8.5796422533498795e-01  5.7731252128604416e+00  7.2471726544883219e-01  1.5367268955255513e+01  0.0000000000000000e+00  0.0000000000000000e+00  0.0000000000000000e+00  1.4289083482235192e+01  6.0814856585737669e+00  1.4682162713552414e+01  1.6533446450593004e+01  -5.8890614805567421e-01  -1.1854055497251519e+00  7.8843204011473365e+00  1.1108409354332139e+01  -1.6231386634625429e+00  -1.7600295881003041e+00  0.0000000000000000e+00  0.0000000000000000e+00  -4.9625512983360931e-01  1.5537894670368018e+00  3.5932943469012035e+00  1.0479942334259514e+01  3.3464498176304556e+00  8.9670348652880634e+00  3.5717910796268032e-01  1.2358742289458764e+01  1.7401880126056223e+01  6.2974409701658303e+00  1.6144890839552492e+01  1.2673194435772290e+01  3.0340941241745503e+00  0.0000000000000000e+00  2.4689376595633297e-01  9.3376583683966565e+00  1.5676865199343157e-01  2.4979165942008548e+00  1.2054626682453630e+01  1.4943132162791988e+01  0.0000000000000000e+00  8.2623689500428696e+00  6.5763133710560888e+00  0.0000000000000000e+00  0.0000000000000000e+00  0.0000000000000000e+00  0.0000000000000000e+00  9.3604016172264810e+00  2.0014975718388381e+00  1.6522317063290632e+01  2.7919104383117899e-01  -1.0840793203926502e+00  -9.8117800108149494e-02  0.0000000000000000e+00  3.0281971360702205e+00  2.7077634811056583e+00  7.4925282467252847e+00  0.0000000000000000e+00  -1.4125522266022250e-01  -9.2788281476906942e-01  0.0000000000000000e+00  1.5675857560250330e+01  -2.7213355062892495e+00  -6.2384751519367032e-01  7.7357480876296378e+00  1.2419616659766044e+01  1.8371680740784522e+00  3.0084226498656328e+00  9.2922538838292628e+00  0.0000000000000000e+00  1.2909758611257846e+01  1.7218757129174961e+01  1.8801973834837085e+01  4.2666043032908973e+00  5.4272673840068251e+00  8.0673725346266529e+00  1.7130337426077183e+01  5.6445543538809062e+00  3.4022919460935480e-01  1.6613129967769066e+01  1.4139569996839956e+01  3.4723017127240441e+00  1.4526875999965840e+01  1.3028051735400755e+01  3.1265549726527126e+00  -1.0011217289784293e+00  0.0000000000000000e+00  1.1630666329420416e+00  9.1963861747327191e-01  -2.4060502382468063e+00  0.0000000000000000e+00  1.0274020247339864e+01  9.6212426496568533e+00  1.6966483734857810e+01  0.0000000000000000e+00  0.0000000000000000e+00  0.0000000000000000e+00  0.0000000000000000e+00  0.0000000000000000e+00  0.0000000000000000e+00  0.0000000000000000e+00  0.0000000000000000e+00  0.0000000000000000e+00  0.0000000000000000e+00  -1.3114698796293542e+00  7.4230794118067562e+00  2.0681052480981541e+00  1.2533386136000143e+01  5.7315225046861871e+00  3.1659785780571950e+00  6.0462200880757395e+00  1.0083371265964199e-01  1.2204893263556377e+01  1.4984099287270428e+01  6.2944177283358949e-01  7.6528150998384472e+00  1.7670900105377850e+01  9.2896363006697269e-01  1.8263921925204516e+00  5.1057484084385649e+00  8.4332874452184861e+00  6.1285454089128368e+00  1.4827158929273148e+01  3.0854835741896763e-01  -1.6385064136988554e+00  1.2805865721012603e+01  8.2782168285722246e+00  -2.1944937055020399e+00  -3.0276721878349622e+00  6.0337408492453051e+00  4.6531289956300368e+00  3.9098814371745148e+00  1.2592255681643332e+00  1.0770486316376822e+00  1.6666339536232897e+01  6.2650225489188338e-01  6.2853023082454507e-01  2.1528027509324299e+00  1.7989180062882070e+01  8.9945883710625174e-01  1.4183730100558026e-01  2.1699394537430230e+00  9.9988369395553942e+00  1.0114299483402583e+01  0.0000000000000000e+00  0.0000000000000000e+00  0.0000000000000000e+00  -3.0973040725978072e+00  1.3809542695049918e+01  1.4633795544588601e+01  1.3031408639768424e+01  8.3646240698047407e+00  9.8080144766807920e-01  3.6744116359703544e-01  -9.9294097871381359e-01  0.0000000000000000e+00  9.2932107007199054e+00  1.4954684770575324e-01  1.1434256280843659e+01  -4.1712684359165975e-01  -4.0808419365178927e-01  -5.2174839457078359e-01  -2.3077479198353839e+00  4.0133886355097017e+00  0.0000000000000000e+00  6.5061352468664140e+00  1.8050485810714498e+01  2.2901447267134825e-01  7.3327854419055649e+00  -3.3610622460885842e+00  1.3740775839598335e+01  5.5823253451758648e-01  7.7899665198319745e+00  7.2585445192797167e+00  9.9485414339697744e+00  5.6923175653786187e+00  1.0079048499783939e+01  6.4077894638510013e+00  8.7731437691916732e+00  1.2797886270088817e+01  7.1316134780422287e+00  -1.2815312169539066e+00  -3.4142607241998996e-01  1.1802745470809594e+01  1.1698012863681331e+01  1.3622290054690447e+01  1.2496052299322756e+01  4.3502811253630815e+00  1.2148296629655961e+01  -2.1308644352244110e-01  1.6288247441860644e+01  9.1005811571420114e+00  3.2309599491171901e+00  1.8509764207936108e+01  6.1312675056695092e+00  4.4657228067146395e+00  1.5933325447418847e+00  1.1751806300862738e+01  -2.8182620634681532e+00  3.5594147190285508e+00  1.7710955688962962e+00  1.7355433189637079e+00  4.2144833702090345e+00  4.6496754459819165e+00  1.7602476074380309e+01  7.9107855845563861e+00  0.0000000000000000e+00  0.0000000000000000e+00  1.4293471422300479e+01  9.4577016602304820e+00  9.9207905795951827e+00  1.7431486529990408e+01  1.0656352299976364e+01  -8.4910581033572463e-01  1.0864972757259588e+01  1.0192852226897413e+00  8.5587100070126443e-01  9.0764262446016541e+00  8.1858359755801331e+00  9.5221497631460910e+00  6.3772994200592441e+00  1.2194493871149509e+01  -1.2896778043846591e+00  4.7919661800465709e+00  0.0000000000000000e+00  1.0944170287229783e+01  1.7746309510795104e+01  1.8660041141467779e+01  -7.7649405766336291e-02  -1.1827935929889088e+00  -7.7362369639005590e-01  5.2099283758586701e+00  2.3052598935952795e+00  -3.2229664345164362e+00  1.6370096587297407e+01  9.7551282787058113e+00  7.7527134039661014e+00  1.0203174403102727e+01  6.8788276848786190e+00  7.9425892603043149e+00  0.0000000000000000e+00  0.0000000000000000e+00  0.0000000000000000e+00  0.0000000000000000e+00  0.0000000000000000e+00  0.0000000000000000e+00  0.0000000000000000e+00  0.0000000000000000e+00  -7.1221372975238062e-01  4.9489408913277346e+00  -3.1364101187647286e-01  4.3062462147772546e-01  1.3247064421113510e+01  -1.3723562390355035e+00  -7.0783823820291872e-02  0.0000000000000000e+00  3.5258718695853099e-02  1.5554708085742210e+01  1.4919534681536785e+01  0.0000000000000000e+00  0.0000000000000000e+00  7.6312783938988504e-01  7.3121055926617040e-01  1.3504642396867567e-01  -7.4124298617241791e-01  1.4258300397729588e+01  2.7363982685208561e+00  -5.2048492104955646e-01  1.5815530000055725e+01  1.3520591335293572e+00  1.6347387937950528e+00  2.3056001985491772e+00  -1.2920331982455053e+00  1.7507021661023902e+01  1.6904411422805907e+01  4.0449654528541314e+00  -2.6046563946968682e-01  -2.8604275702553035e+00  3.2859884260096863e+00  2.8960532900324204e-01  8.2070712047930385e+00  0.0000000000000000e+00  1.0669502110753026e-01  5.3317329704602470e+00  6.8801901922322029e-01  1.3349101210504515e+00  5.1269967533689149e+00  1.6527343502824721e+00  -3.2137548062887595e+00  1.9251368405278610e+00  -3.6753464804655539e-01  4.1205870074391067e+00  3.2292261465340788e+00  8.8512903924122444e-01  -1.0206643949545480e-01  4.0271625952893322e+00  0.0000000000000000e+00  1.5741787983466411e+01  1.9135143898540108e+00  -1.6077416280329500e+00  1.6589004651165808e+01  1.1458408595480766e+01  6.5093986461110829e+00  0.0000000000000000e+00  7.3967926803633546e+00  1.6267881345074240e+01  1.8395916993241175e+00  1.1456324991178953e+01  -1.8162285688209616e+00  -6.2714719957142162e-01  1.0693389689858444e+01  1.3334023636259454e+01  4.7652539320205616e+00  -6.5698234350524887e-01  -8.6940752331860460e-01  7.7142001252658382e-02  -1.1714076892770027e+00  5.1170676123996936e-02  4.8923038244123047e+00  8.9442947778526793e+00  5.9124355413552108e+00  1.2432240594522641e+01  9.1881445167820832e+00  0.0000000000000000e+00  -1.4457228276274898e+00  1.8131042348917159e+01  2.1523722695651943e+00  3.5031500742575958e+00  1.4245577586465492e+01  1.2794794927392694e+01  1.2765191869812865e+01  1.4202606664345948e+01  1.2020919994466130e+01  1.3118365390687439e+01  9.7389461829592410e+00  -7.0588797445505813e-01  2.7166913627678008e-01  1.1352448969562083e+01  1.5322044754725416e+01  2.6887649994546989e+00  2.0937315482629506e+00  1.2208733117234229e+00  -1.0886898708455835e-02  1.1316185105860512e+01  6.8946703224749122e+00  8.0910736582311937e+00  6.7866346180976524e+00  3.2130104578784837e+00  6.4090676435691405e+00  4.3810558428632449e+00  -1.8052925433861606e+00  1.2955603186042336e-01  2.6181730216155858e+00  1.9894610258480045e+00  3.5361315080645208e+00  2.6733702449602190e+00  2.9805267673177394e+00  9.0517164538712436e+00  2.5431848144365006e-02  -3.1904156778381459e-01  0.0000000000000000e+00  7.6399624338383720e+00  1.8612169411252552e+01  6.9974013071190511e+00  8.7848599712877746e+00  3.3969121546532346e+00  5.3664281348823097e+00  1.8575562190438600e+01  -2.3427518229912230e+00  1.5649523921016092e+01  4.0051999384077295e+00  -1.2000017574404471e+00  -7.1022971187710870e-01  2.4413780686966693e-01  -1.1862242737363922e+00  -2.9079750500450965e+00  7.6444297221684749e+00  5.7805273921116092e+00  9.2415982376944914e+00  6.1096755938950595e+00  1.8675636389378230e+01  1.7792990818497586e+01  1.6319147934745814e+01  1.2495812299903038e+01  1.8111962286795400e+01  1.6915492944426155e+01  1.6010362838725495e+01  1.3572323912022771e+01  -8.6103302823980252e-02  9.5035768177711211e-01  3.0175527596912866e+00  3.5309467223413247e+00  1.4916181369777410e+01  1.0528662089527247e+01  -2.4745972454864589e+00  5.1956182297321374e-01  4.1737413059809931e+00  2.5235986590313311e+00  2.2394663277318512e+00  4.5740912961559221e+00  3.2000846139316601e+00  1.0901035698924398e+01  1.1717311756613690e+01  1.2610580139292304e+01  6.8910202465804602e+00  1.0174956333538539e+01  -2.9429066638489463e+00  3.8983645274635333e-02  5.5824658180983198e+00  -1.8551153152257183e+00  -1.1301147626665304e+00  -4.3084414811882299e-01  2.2925088355011289e+00  1.1686040893613519e+01  1.0947058716174907e-01  2.3717213148507155e-01  1.0495739229306011e+01  1.6765875101617461e+01  1.8484957303068519e+00  4.1561693736371224e+00  4.5609698758531261e+00  -9.0331924932797103e-01  8.4514277160777844e+00  1.5470107858535636e+01  1.3109790437329375e+01  6.2602385429578753e+00  1.7666867692560602e+00  7.3918155508612096e-02  1.2766453461931716e+01  1.7806831240254628e+01  3.0956639763783231e+00  1.1838497713603152e+01  1.3777842497391335e+01  2.0164860990390663e+00  1.0062727092588892e+01  0.0000000000000000e+00  0.0000000000000000e+00  0.0000000000000000e+00  0.0000000000000000e+00  0.0000000000000000e+00  0.0000000000000000e+00  0.0000000000000000e+00  0.0000000000000000e+00  0.0000000000000000e+00  0.0000000000000000e+00  0.0000000000000000e+00  0.0000000000000000e+00  0.0000000000000000e+00  0.0000000000000000e+00  0.0000000000000000e+00  0.0000000000000000e+00  0.0000000000000000e+00  0.0000000000000000e+00  0.0000000000000000e+00  0.0000000000000000e+00  0.0000000000000000e+00  0.0000000000000000e+00  0.0000000000000000e+00  0.0000000000000000e+00  -2.8928112796458643e+00  1.7492737554159817e+01  -6.1072413790824742e-01  1.4610914630425258e+01  1.4962246506001328e+01  1.3840849219927673e+01  1.5269709958128226e+01  1.5812074311141675e+01  7.7229053136627712e+00  5.6424815211788459e+00  6.1852606467466371e+00  1.5371821889836514e+01  -2.7165630155492413e+00  1.1182618593733251e+01  5.0683528091679904e+00  2.5616836896648937e-01  -1.7993689299634366e-01  -1.0383234829155541e+00  5.0792196084128429e+00  3.2891984913253953e+00  5.8755626572284090e+00  2.6333201668737218e+00  1.1441826219693561e+00  1.2151302929466687e+00  1.5910371406113910e+01  1.3502099188574114e+01  1.5780147280498056e+01  5.3001426549142563e+00  4.5455100514176516e+00  5.0128397980194119e+00  9.7172173548772207e+00  9.6167168319630525e-01  6.2645583352514578e-01  8.5087770216495284e-01  1.4117768139216418e+01  1.3433520083190954e+01  1.6988094904216460e+01  1.8348492567258582e+01  1.7935331075501363e+01  9.3291150290895999e+00  7.6355566080011457e+00  1.9422987929787325e+00  -1.2452747473286241e+00  3.6480078922450548e-01  1.7053547046315636e+01  -4.1509386249449248e-01  -2.0808769816760084e+00  -3.0874106616855673e-01  -8.0747179147471482e-01  2.7550338998143770e-01  -1.2451518724323274e+00  1.1336839807229065e+01  -1.0903813430982123e+00  1.0426015215065876e+01  1.1486704341025353e+01  5.1852675316265371e+00  -2.2146665275136934e+00  1.0082563315404096e+01  1.2703121387588949e+00  5.4725615460406885e-01  9.5325284033787572e-01  1.0181156954304020e+01  7.5644915900817598e+00  5.2043045805959247e+00  2.7591700771631333e+00  6.7383302761212942e+00  1.1734988765946232e+01  -2.5221690194418280e+00  1.0978454529269401e+00  -2.5953276590190683e-01  6.8175607649059371e+00  -2.8393352174418172e+00  1.0879367204913532e+01  5.7045928331682472e+00  6.9285544218653650e+00  5.3246672296820430e+00  1.0373200299016300e+01  2.7487617634754091e+00  0.0000000000000000e+00  1.4255119473529922e+01  1.2937202631071374e+01  1.1664492561692430e+01  1.3979789684135332e+01  9.8726431353435185e-01  5.5089302295712166e+00  4.3411280378225281e-01  4.7032676604813464e+00  1.4095757710066161e+01  1.7061929775869437e+01  1.3934863966325846e+01  1.4711818252884004e+01  8.0703750443140247e+00  2.2776764336743455e-01  1.5965550636161757e+01  2.5707898549301498e+00  3.0825974076213658e+00  3.6337882738371321e+00  -4.9316717594522458e-01  -9.5578263674930319e-01  -1.0218341577565715e+00  1.4584939277914430e+00  6.3588729906109065e-01  -1.9170161280361531e-01  9.0601418623507808e+00  3.0247509943406099e+00  4.8720022642939336e+00  9.7164055607472974e+00  1.5142517017074792e+00  3.5633534811674945e+00  1.4488482394244567e+01  1.1125287744567414e+01  3.5687520529741656e-01  4.7567189510576768e-01  9.8407728509202452e-01  2.2240763792931046e+00  7.4400013761444912e+00  1.6677195418219057e+01  -1.2327222624446166e+00  -2.6423514819001714e+00  -2.4000254081123766e+00  -2.8138563814767044e+00  1.1380637225095633e+01  -2.5294289924242865e+00  1.6467539718205561e+01  5.4638003310549410e-02  5.9507314843861421e+00  5.3391508009812725e+00  1.8396077158110771e+01  7.7028282026682788e+00  5.6471873407228159e+00  -2.1329993981034239e+00  4.6299423896804759e-01  3.7621724811092383e-02  3.6461749710497965e-01  2.6102626064767859e-01  2.2139061247888236e-01  6.4738453767876472e-02  6.2579961120496810e+00  1.1085992387925531e+01  -1.1267262781614460e+00  -9.5354170607678523e-01  -8.1556956567862016e-01  1.7301720679277537e+01  4.4489341747543021e+00  0.0000000000000000e+00  3.3045085027421401e+00  2.2564867833325417e+00  1.2079483458589777e+00  8.9418402998764392e+00  2.6852876226703792e-01  2.9437820508305910e+00  1.3115293319357535e+01  1.2886680160684010e+01  9.9950355618019877e+00  1.7286725524935051e+01  1.7692443565600279e+01  8.2991800665962376e+00  -9.1946520760916292e-02  1.8120192691598138e+01  1.5824314432155862e+01  9.4765745492526925e+00  2.2829833321880693e+00  -3.6575060489174521e-01  1.5678003112157406e+00  -2.2396637234606502e+00  5.7737211230843108e+00  9.4660384673493070e+00  1.1143900356857207e+01  4.9855655320484679e-02  -1.3913487936723352e+00  -3.0853795689784853e+00  3.3502728006148246e+00  2.7288157691372117e+00  1.2023259379104806e+01  1.2349150946532205e+01  4.1460036094487389e+00  -1.2911197550625936e-01  2.8792583170423320e+00  8.7834809780449632e+00  -3.4855810016453576e-01  0.0000000000000000e+00  9.9838522187856038e-01  0.0000000000000000e+00  8.3752395524084433e-01  0.0000000000000000e+00  -2.3217331500084590e+00  -1.7469862998563663e+00  1.5605806454185798e+01  3.1701506994670932e+00  1.5654438637358536e+01  1.3604414559200222e+01  1.4762138881726177e+01  1.9500662286278987e+00  4.8943096473246245e-01  -1.4836861504221028e+00  -1.1294005387245938e+00  1.7284718983961656e+00  -3.0338530635230052e+00  1.7412277411313092e+01  7.3672629465685668e+00  7.5561474390416405e+00  9.6337339816982119e+00  9.0912600158240657e+00  1.2623187435191459e+01  1.0928876238272840e+01  3.3637260077713498e-02  8.3686627068261839e+00  1.3696750884519169e+00  5.1119193324868020e+00  -1.1302430746066370e+00  1.2586620384567270e+01  8.7798545681218219e+00  6.5919907278677377e+00  5.6082209188319148e+00  4.0146743820334169e-01  6.9706987826686140e-01  9.0675621128357093e+00  -1.8604574264414939e+00  -1.8319991945981201e-01  2.3839635818919205e+00  7.8693546162396295e+00  -4.0272957763651120e-02  -1.0055761933260448e+00  9.5175658111264272e-02  1.2288873096824588e+01  5.3211958990342278e+00  1.5888646940086343e+01  9.3865755683350205e-01  6.5173495793385339e+00  7.3521299023345170e+00  -1.1262152378275301e+00  1.2669545797915689e+00  1.4227311554803184e+00  1.5471246835179842e+01  8.5810401226467867e+00  -5.3191473628358610e-01  6.8570296066744687e+00  7.8388206207965361e+00  4.2359566661136885e+00  1.8677399155486039e+01  1.0146735678645527e+01  -7.4491971119516676e-01  1.6799870124950633e+00  9.7207190502908496e+00  6.7682672476430596e+00  2.1844588277930259e+00  4.0690559050188568e+00  6.4244997009104852e+00  1.2693640681625967e+01  4.4609977967150387e+00  5.9885944251942302e-01  6.2003383307495818e-01  1.0440036289690234e+01  1.0313291229473831e+01  1.4159771300391837e+01  1.1906302399957032e-01  4.3370701791607456e+00  8.2519148956284880e+00  1.4230175900311838e+01  7.1404112635083292e+00  5.2940712704496047e+00  -1.9656918611290897e-01  8.2552062917787943e+00  6.1589004523452067e+00  -3.6609910072180141e-01  -3.9144546792676854e-01  -1.3124304443736308e+00  -1.0101228167496121e+00  1.6322090656312927e+01  -1.7683679013165756e+00  7.3569217770781865e+00  1.4471454111877312e+01  6.6508916611641249e+00  1.5965340269051980e+00  -2.7260863736000958e+00  1.6966563793263504e+01  1.2564436572957455e+01  1.0658455181949805e+01  1.0766545701517856e+01  3.8987609344321905e+00  2.2749667314771574e-01  5.3807695407983802e+00  3.9404236726227184e+00  1.1929596607649119e+01  9.4478692247551503e+00  8.8945731842145666e+00  8.1307386274591789e+00  -3.8613126336784281e-01  4.4342573469711919e+00  4.4337987141672768e+00  3.4833867439215953e+00  4.9647192482083025e+00  -9.3623714160340021e-01  -5.6595511432049761e-01  2.1098777431707938e+00  1.6405995331551022e+01  7.7805125537334918e+00  1.1227419359428255e+01  4.8299321161252022e+00  1.2433591245884983e+00  1.4102193387718811e+00  2.2193413587773967e+00  2.9123854112305745e+00  8.8405091652905856e+00  1.5132593197620665e+01  1.4913798902677279e+01  7.5097300010619250e+00  7.0361171563207243e+00  6.1987128182548394e+00  -1.8238443949621994e+00  -6.4174048881399284e-02  1.5437723492287486e+01  1.6822337311934767e+01  2.6342147279539638e-02  -3.1743285384484748e-01  0.0000000000000000e+00  -1.9204840178670022e+00  5.4720662778731608e+00  4.3886292250060546e+00  3.2594358231305649e+00  4.4224841048895218e+00  1.7787031796334496e+01  1.8088621591714499e+01  1.8803598752576026e+01  7.1048732454361430e+00  5.1714755512345469e+00  -3.0058011828935310e-01  9.1067051641386865e+00  -1.1450053764953448e-01  7.0315761977701614e+00  -2.3609529040676738e+00  3.8313895187897371e+00  