<?xml version="1.0"?>
<VTKFile type="UnstructuredGrid"  version="0.1"  >
<UnstructuredGrid>
<Piece  NumberOfPoints="14566" NumberOfCells="28705">
<Points>
<DataArray  type="Float64"  NumberOfComponents="3"  format="ascii">0 3 0  0 0 0  2 0 0  2 3 0  2 1.5 0  0 1.5 0  1 0 0  1 3 0  1 1.083333333333333 0  1.1875 2.041666666666667 0  0 2.25 0  2 0.75 0  0 0.75 0  2 2.25 0  0.546235380116959 1.875 0  0.5 0 0  0.5 3 0  1.5 3 0  1.5 0 0  0.75 0.5416666666666666 0  1.397727272727273 0.6098484848484849 0  0.7400140009560829 2.446414029671393 0  0.4305555555555555 1.125 0  1.413194444444444 1.5 0  1.511633211678832 2.466088807785888 0  2 1.125 0  2 1.875 0  0.9531937950269089 1.626186072001953 0  0 0.375 0  0 2.625 0  1.446040104181028 1.054219142057518 0  2 0.375 0  1.613091388971457 2.052622604569185 0  0.3978050788698214 0.7279316172646906 0  1.122034767567557 2.604844747138268 0  0.3976808956026018 2.243942213143948 0  0.4013368467572315 2.628399882254177 0  0.3915890028118316 1.51493140652058 0  0 1.125 0  0 1.875 0  2 2.625 0  0.3745170793253871 0.3535227724338494 0  1.25 0.271574440052701 0  0.7159977215410738 1.350437455814274 0  0.7085197291365257 0.8893370480908342 0  1.706597222222222 1.6875 0  1.696549685796197 1.296777466148165 0  0.8698085846740859 1.947017983326575 0  1.057825596389426 0.7281189555125724 0  1.726188774537831 0.5625 0  1.710431770995195 0.8791872695688975 0  1.75 0 0  1.75 3 0  0.8440250195969674 2.735409186889472 0  1.557361044457889 0.3036611226867964 0  1.021382495358583 2.307750712964459 0  0.9438037150343664 0.3025888941184255 0  1.422209083254015 1.809204266327822 0  1.1296651354649 1.367957652701011 0  1.705681205609129 2.699620803739419 0  0.6535540818054447 0.2653941918737499 0  0.2152777777777777 0.9428714285802794 0  0.6764082332685148 2.163317662154022 0  0.2152777777777777 1.300399603586393 0  0.6738797158697101 1.626558021437488 0  0.2022665791879026 2.438046698110248 0  0.25 3 0  1.38627383238228 2.730439726544761 0  0.2731176900584795 1.979408052870387 0  1.788988139129612 2.433013002880604 0  1.395884399116 2.218504617781978 0  0.1889297394923665 1.6875 0  0.1980492074855439 0.5524276374026066 0  0.25 0 0  1.21434773979559 0.9359132279393747 0  1.162660410385986 1.781867069461707 0  1.25 3 0  0.75 0 0  1.25 0 0  0.75 3 0  1.116873502935106 0.4842556563055509 0  1.277400787068369 2.424746368423087 0  0.6657421642148181 1.120641644021926 0  0.6306361732889977 2.648994399124817 0  1.794501480514241 0.241165679657173 0  0.1995152701183739 2.762823153254418 0  0 0.1875 0  1.470025947155241 1.280086929735272 0  1.484570527100927 0.8252183799387092 0  1.242989691626331 1.165848469786021 0  2 2.0625 0  1.778024971434719 2.207218987747306 0  1.808812959484196 1.96875 0  2 2.8125 0  0.5594399178162468 0.4532199053554985 0  1.780142342986769 1.09053052213301 0  1.125 2.822181958293781 0  1.15437464724632 1.574257741882416 0  0.9258053099401093 1.28898157144858 0  0.9414800874564364 2.500417763956405 0  1.411666711023481 2.014022948820662 0  0.2133789240500979 0.2115885654001305 0  2 0.9375 0  0.3965527976610288 1.72604344321965 0  0.608995122443001 0.7011531686631721 0  0.4138123102177461 0.9264961621055305 0  0.5749863647331368 2.334798630725083 0  0.1987198992492864 2.239057349078047 0  0.4984282205902797 2.070129278380434 0  0.4102452351893879 1.319883055253778 0  0.8831982801865097 2.153602641944079 0  1.623548628757152 1.494145162716432 0  0.2033775143403518 0.7477945287866119 0  0.1940536105539605 1.49340186742834 0  1.202090490568975 2.235671565210217 0  0.8466070242559173 0.7295024517030759 0  0.9532944875716811 0.8934161868796685 0  0.3945591291744741 2.436218116639167 0  0.390119492358766 2.83027622360013 0  0 2.0625 0  1.588911207098181 2.279111216118611 0  1.611152302833269 1.857591555864952 0  1.812477793912983 1.451840609478801 0  2 1.3125 0  0.7299720177885035 1.812388578202914 0  0.3990727621832508 0.1632073431396914 0  0.3931607960443144 0.5402918167664157 0  0 2.8125 0  0 1.6875 0  2 2.4375 0  0 2.4375 0  0 1.3125 0  0 0.5625 0  0 0.9375 0  2 0.5625 0  2 1.6875 0  2 0.1875 0  0.625 2.846709428529378 0  1.253682590775686 0.7434363360896369 0  1.523086796648675 1.651807599666824 0  0.9411304688418869 0.5621263133613359 0  1.125 0.1357872200263505 0  1.41562649854122 0.1731862647719977 0  1.300240745075605 0.4510277883928345 0  1.555879490833153 2.817654319666713 0  0.863104561805179 1.463788789510293 0  0.572634432547554 1.469842074183063 0  1.642240545166245 0.1445731778058382 0  0.875 0.1332980020323718 0  0.2487211794256408 1.121635516083336 0  1.573217117267048 0.6642797787692021 0  1.532509884912857 0.4854117220234143 0  1.318319980339258 1.657499541059452 0  0.6967186728143467 1.986865355086986 0  1.301817177279576 1.331659278786805 0  0.8248882106199859 1.030466229808272 0  1.605750972809839 1.139912728256475 0  1.843199325955406 1.797053511030686 0  0.2063238460867002 0.3820355271287071 0  0.9827851948228239 1.80512896198594 0  1.826970058610837 0.415996684272712 0  1.815548982041781 0.725681816908465 0  1.014647505823572 2.041356564123892 0  1.284408782125187 1.904792104550927 0  0.8525918307249374 2.320050269794524 0  0.2372387727050605 2.600742842596934 0  1.373827344559335 2.562638247702516 0  0.5704448974488513 1.261876095074753 0  1.538823098639072 2.640881839270544 0  1.660201480254432 2.532489581187561 0  0.587112621207044 2.494677032146202 0  0.5461561799319455 1.015291367624069 0  1.572288330999834 0.9577191413849884 0  1.867150148288836 2.71875 0  1.091315479755366 2.44965514014893 0  1.024103073242107 1.485231137654558 0  1.091268073330427 1.213602378001351 0  1.875 0 0  1.875 3 0  0.125 3 0  1.85164596646159 1.239574888136519 0  0.5144737921873372 1.618478755254639 0  0.789902825397775 1.213881397553005 0  0.7871809298881783 0.3737161797805977 0  1.096901857517183 0.2870816670855633 0  0.8110918697082464 2.584047356465716 0  0.9744132373451575 2.651779594380161 0  0.9648544366790877 2.842449488677214 0  0.625 0 0  0.5537257935489299 0.1460342872932163 0  1.7705015452388 2.843516086018942 0  0.2713847131997923 1.821813683845335 0  1.671841286637515 0.4171978006585984 0  1.280104727509329 2.845993023801107 0  0.5072888412610886 2.735536974420782 0  1.875977913857691 1.59375 0  1.401867863809804 0.3303526277085793 0  0.125 0 0  1.087945285896537 1.911207589900836 0  0.5539485640670052 0.8506752587845635 0  1.802031380552774 2.583004008860892 0  1.247745080385359 0.5925801107113228 0  1.846532469172136 0.9514635756358938 0  0.5153558527085855 0.3136387920935104 0  1.259950669466945 2.655447264867863 0  0.3543785282176074 2.102738236554382 0  0.1206765555899243 1.96875 0  0.4171673824311519 1.94679909469644 0  1.341725400962083 0.8616865987507794 0  0.854245297200512 1.73446714966294 0  1.266296445207783 1.476175406081331 0  0.7308144723714898 0.1432494811275388 0  0.1053667300439123 1.03125 0  0.1883996934132187 2.095616965421765 0  0.768270499960176 2.857490829759849 0  1.872206565425325 2.315809268737681 0  0.605673697931064 1.748526679480376 0  0.8134983007371885 1.597494620919787 0  0.7117096079616703 1.491055883497182 0  0.1027173614314198 0.84375 0  0.7128018016146636 2.308840771762036 0  0.1027094327320722 1.21875 0  1.421885244136567 2.869709256359061 0  0.3030107335519462 1.40771559083607 0  0.1294370239590212 1.816488826586231 0  0.1046314960532825 2.340260612134282 0  0.3066854642776671 0.8393938660272582 0  0.529850680728582 2.204447295200468 0  0.2974747181276535 2.338478572792295 0  0.100880635356019 2.53125 0  0.1038707739568649 0.6527523034992539 0  1.863094387268916 0.5487629667361756 0  1.290517272107038 2.131470167148579 0  1.52111741644401 2.157338416251437 0  1.464641663798353 2.337208835657457 0  1.281373773327221 0.1357872200263505 0  1.100886779012995 2.145731672614935 0  0.4928959427886405 0.6317006424650523 0  0.1060944877986065 0.2925173789259402 0  0.875 3 0  1.625 3 0  0.2831533857306817 1.592870651929527 0  0.09446486974618326 1.59375 0  0.1003055413557448 0.4622840038043601 0  0.3012082573901707 0.6364451147081118 0  0.09395132912287625 1.40625 0  1.864428922933186 2.097152368249048 0  1.075790964199689 0.9639927685251957 0  1.577647454334931 1.364983118044755 0  1.628153344277988 2.404788350306467 0  1.167077918760056 1.058552924814679 0  1.074739275689835 1.681406025969635 0  1.148987566563863 0.8222984211808768 0  1.306654321632048 1.041166548652151 0  0.9081130845912743 0.4320037560380569 0  1.737437621288794 1.559740937438288 0  1.383346867833016 0.7387963733691006 0  1.375 0 0  0.8103372716496738 0.2459264405828014 0  0.3210031681523711 1.2276684776974 0  0.3413174941012037 1.032568939725027 0  1.736806510857051 2.085914365958977 0  1.681325946641243 0.7465125094501177 0  1.876398417646562 0.1344843882356253 0  1.358990329084177 1.218033987372085 0  1.495613030057731 1.915663152891221 0  1.895663085261757 0.8297047254494576 0  0.6211324108585357 0.569808241175043 0  1.11972651515424 0.6140269112896967 0  1.183436751467553 0.377915048179126 0  1.030338608984736 0.3934222752119882 0  0.7763722399334972 2.085428896480006 0  0.9995343277854785 0.1813115376207536 0  1.375 3 0  0.875 0 0  1.625 0 0  1.125 0 0  0.625 3 0  0.375 0 0  0.375 3 0  1.125 3 0  0.7043160420037512 2.750032606584533 0  1.300621845436222 1.781043998964619 0  0.1197771551622881 2.868065229891808 0  1.709085611581005 2.310552442506958 0  0.90539088267281 1.16540809825354 0  1.689559846240368 1.003240252671143 0  1.893127565596496 2.499519646159833 0  2 0.28125 0  1.673576840463066 0.2634794911438599 0  0.2909513983845114 0.4715422116238709 0  0.8306437486451163 0.9071799064847175 0  0 2.15625 0  2 0.65625 0  1.647615107768551 2.170843453709399 0  0.1234053348441461 2.65967874202093 0  0.3045785620803027 2.701846039693036 0  0.2418977276602471 2.877763189539751 0  0.6645594122709834 0.3884004847932273 0  1.173565072488407 2.356569317260697 0  1.72214809056434 1.808050877895925 0  0.7333281117019459 0.669002473049245 0  1.225238049542525 2.5368112091
[...]
<PointData  Scalars="f_8576"> 
<DataArray  type="Float64"  Name="f_8576"  format="ascii">0.0000000000000000e+00  0.0000000000000000e+00  0.0000000000000000e+00  0.0000000000000000e+00  0.0000000000000000e+00  0.0000000000000000e+00  0.0000000000000000e+00  0.0000000000000000e+00  5.2671416598712728e+00  2.6768255062731368e+00  0.0000000000000000e+00  0.0000000000000000e+00  0.0000000000000000e+00  0.0000000000000000e+00  4.5146278170119105e+00  0.0000000000000000e+00  0.0000000000000000e+00  0.0000000000000000e+00  0.0000000000000000e+00  5.7982205789673102e+00  2.1596214439408010e+00  1.5558322021581441e+00  7.0292029701865477e+00  2.3480719612700027e+00  8.9374961784769003e-01  0.0000000000000000e+00  0.0000000000000000e+00  4.6570308007957752e+00  0.0000000000000000e+00  0.0000000000000000e+00  2.0802999871725256e+00  0.0000000000000000e+00  9.5603159709633423e-01  6.8613018123798302e+00  8.1144525418496805e-01  2.5269849151008863e+00  5.4277151972858351e-01  6.0148989986016446e+00  0.0000000000000000e+00  0.0000000000000000e+00  0.0000000000000000e+00  5.1888041871746822e+00  2.4320305706149448e+00  6.1685622601970005e+00  6.6174720761447983e+00  3.2882617683518878e-01  1.4004322683487097e-01  3.8117130528262142e+00  4.7122650480259844e+00  -2.6571759515145166e-01  -1.7066141071043353e-01  0.0000000000000000e+00  0.0000000000000000e+00  1.7029005065701724e-01  7.9690016763447802e-01  2.0909800599269226e+00  4.0154797887454814e+00  2.0911573279827493e+00  4.2888609999264622e+00  2.9773334359467796e-01  4.5654558922567645e+00  6.3318330427065446e+00  3.0308144679033266e+00  5.9482902121160013e+00  5.4435665098227153e+00  1.2571112280201997e+00  0.0000000000000000e+00  3.8194673559590875e-01  3.6674197954494181e+00  2.7694972516502936e-01  1.6267210116344482e+00  4.4866852070847383e+00  5.3556988313725205e+00  0.0000000000000000e+00  3.8403720549007763e+00  3.4162710706038846e+00  0.0000000000000000e+00  0.0000000000000000e+00  0.0000000000000000e+00  0.0000000000000000e+00  3.8510190231098944e+00  1.3608500555912322e+00  6.6986850137540896e+00  4.9097755893005024e-01  -2.8058297676028504e-01  5.4634426077209627e-02  0.0000000000000000e+00  1.9452756036412415e+00  1.6426729301154659e+00  3.6709784371229168e+00  0.0000000000000000e+00  2.5768037138434274e-01  -1.5442656766104648e-02  0.0000000000000000e+00  5.8698620223788804e+00  -5.7245471106644419e-01  1.0436424171293158e-02  3.8612696836513876e+00  5.4794920799220046e+00  1.2819407992656964e+00  1.9073196603844367e+00  3.2885876464561954e+00  0.0000000000000000e+00  5.1583175838484419e+00  6.6485390555883122e+00  7.1189555669162772e+00  2.1281323768758948e+00  2.1344376209310760e+00  3.5265532494461862e+00  6.6421725982481785e+00  2.9139222260635735e+00  8.0766769294810070e-01  5.9952269637685358e+00  5.2215299064229637e+00  2.0715150527568369e+00  5.8719239644254371e+00  5.5069892647955712e+00  1.5006864676530203e+00  -2.2016950524151105e-01  0.0000000000000000e+00  9.3465240911320668e-01  9.8546295859334654e-01  -4.9732954355613085e-01  0.0000000000000000e+00  4.6192309412412955e+00  3.4399499040626398e+00  6.2566259700947366e+00  0.0000000000000000e+00  0.0000000000000000e+00  0.0000000000000000e+00  0.0000000000000000e+00  0.0000000000000000e+00  0.0000000000000000e+00  0.0000000000000000e+00  0.0000000000000000e+00  0.0000000000000000e+00  0.0000000000000000e+00  -2.8881832377684563e-01  3.3926008742380094e+00  1.5528987222296100e+00  5.0399887230575553e+00  2.1440744843828963e+00  1.2704256638552613e+00  2.6174848422019577e+00  1.8699860815118141e-01  5.4118326332964584e+00  6.1418448259719067e+00  3.1325436634856563e-01  2.8031697192283467e+00  6.5172759162548406e+00  8.3855292378723878e-01  1.0597109906349740e+00  2.8365488988834393e+00  3.8867363821793348e+00  3.2015195679882256e+00  6.1768911032284874e+00  7.8259692070146203e-01  -3.0560694096189867e-01  4.5667675805765038e+00  4.0304212817240366e+00  -6.2281665652874418e-01  -8.1070566442165914e-01  3.1407886412838630e+00  2.6354986675877816e+00  2.1682134644200177e+00  6.1841127720716504e-01  8.5644432959620131e-01  6.6937328964322216e+00  5.3597294061154488e-01  5.2764274464081651e-01  1.2722503165759078e+00  7.0416001597204163e+00  9.7715687422014341e-01  1.1449508163982919e-01  1.4496527189275901e+00  4.6771205839184464e+00  4.6591731707511022e+00  0.0000000000000000e+00  0.0000000000000000e+00  0.0000000000000000e+00  -8.2241768108290714e-01  5.6574571438803671e+00  6.1695993062966723e+00  4.9649874923233721e+00  3.2623387221906759e+00  8.6639981591872250e-01  5.9035726715964298e-01  -1.4150030216381876e-01  0.0000000000000000e+00  3.3469573971574964e+00  1.1699274848509586e-01  4.4172090542972899e+00  1.2631757916732328e-01  3.7694863779905226e-02  7.3521669164271178e-02  -5.9102805347243836e-01  1.7429780981052099e+00  0.0000000000000000e+00  3.3657937868767149e+00  6.9875887417896108e+00  2.3577441156513582e-01  3.2293294991113317e+00  -9.3282335542082440e-01  5.0440075970581209e+00  6.1615710869062057e-01  3.2263400488089964e+00  2.6809728470656546e+00  4.1168608544952638e+00  2.8251468613825685e+00  4.6449523173901888e+00  3.3404082677434053e+00  3.1911689388184197e+00  4.5645353944312701e+00  2.7371734439927682e+00  -2.7300318273017909e-01  2.7481520488025893e-02  5.0535682387897909e+00  5.2100910105224596e+00  5.8113876052772691e+00  4.4393074527574150e+00  2.2715384462075381e+00  4.3471107471463482e+00  5.5952138612210052e-02  6.1733087169887204e+00  3.3439420303676148e+00  1.2251831895392298e+00  6.8316129779646486e+00  2.8204497275356437e+00  1.9059143818919042e+00  6.2823188523375695e-01  4.1615276430149333e+00  -8.4064990725760103e-01  2.1307660932366130e+00  1.2889261259477742e+00  1.2205557286627933e+00  1.6082993438921056e+00  2.5805837063677148e+00  6.6316680801251433e+00  2.7798435098062848e+00  0.0000000000000000e+00  0.0000000000000000e+00  5.4480807122715520e+00  3.4092341568287465e+00  3.4980763960146697e+00  6.3703411824643901e+00  3.8216154728319878e+00  -1.0339255090385271e-01  4.8033807650641069e+00  1.1109325582596277e+00  7.1369711558778082e-01  4.2116746042998736e+00  4.0261404449527696e+00  4.2233493179890518e+00  3.1889461312998675e+00  4.7699771346806816e+00  3.6262252874236754e-02  2.3975889373741039e+00  0.0000000000000000e+00  4.0857718037679946e+00  6.6908401829698398e+00  6.9984687753187220e+00  3.7766790979109865e-01  2.2186225355899494e-02  -2.4082464279973445e-01  2.8074273160552830e+00  1.6103610379205955e+00  -9.8008708197154581e-01  6.2549633481175499e+00  4.1268740924045959e+00  3.1565600528227500e+00  4.0401125251106018e+00  3.3450483274550464e+00  2.9735110179162856e+00  0.0000000000000000e+00  0.0000000000000000e+00  0.0000000000000000e+00  0.0000000000000000e+00  0.0000000000000000e+00  0.0000000000000000e+00  0.0000000000000000e+00  0.0000000000000000e+00  5.2148766782010303e-02  2.7694239196650425e+00  -8.3718806975885088e-02  5.1789414967358438e-01  5.7214398287759005e+00  3.2637208643307873e-02  6.5420194207811241e-02  0.0000000000000000e+00  1.8144859690502321e-01  5.6316506972068234e+00  6.1378321573589893e+00  0.0000000000000000e+00  0.0000000000000000e+00  7.7379161236755012e-01  3.2544528253941729e-01  2.2605628801170524e-01  -2.0313944607614565e-01  5.3662782296662703e+00  1.7213064458274927e+00  3.0881529113298267e-01  6.2167432224836396e+00  1.0392592166711767e+00  1.1582145737259999e+00  1.5159084846252824e+00  -3.3544766926307890e-01  6.9263781834125773e+00  6.7766237654982451e+00  1.9114447225548339e+00  -3.4187973336523021e-02  -8.0343488654861395e-01  1.9318022622839401e+00  6.7397419841090367e-01  3.9791655707629512e+00  0.0000000000000000e+00  6.7013721197203086e-02  2.7230437329188080e+00  6.0912264421170881e-01  9.8601302794658630e-01  1.7981501048957020e+00  6.7020632023261373e-01  -9.5343829520485579e-01  9.6718101206171581e-01  2.0332313422520479e-01  2.4108598236639325e+00  1.9991472386216489e+00  1.0448016610554878e+00  4.6172272263745762e-01  2.3544901594017409e+00  0.0000000000000000e+00  6.4828616754543704e+00  1.4656401838034818e+00  -4.9278749074562193e-02  6.5489380786295026e+00  4.6153883933096918e+00  2.2992612753308870e+00  0.0000000000000000e+00  3.6797498798014114e+00  6.5078531342439545e+00  1.0400965805124671e+00  5.1716123600227846e+00  -5.6556495866792722e-01  -8.9559637859988439e-02  4.8948554657920251e+00  5.7761092702149419e+00  2.5947002910420585e+00  -1.2428474646451677e-01  -1.9368226794915819e-01  3.9727331474697969e-01  -2.3771540010257106e-01  8.9923675272231288e-02  1.8257155929571285e+00  3.9584236603236538e+00  2.0706039171826962e+00  4.4515395642309175e+00  4.2947748858058059e+00  0.0000000000000000e+00  -3.3687836759417605e-01  6.9069702222747669e+00  1.5988292233051125e+00  2.1450174370365387e+00  5.6657301919315186e+00  5.2492533545956945e+00  5.3354501753193437e+00  5.5980712122847240e+00  4.9915875400909382e+00  5.0561148937194700e+00  3.6846726523199465e+00  3.4805492935658872e-01  7.5808785375853827e-01  5.0448756882691486e+00  5.6466710766275607e+00  1.6785484844101004e+00  1.3730078959216332e+00  9.9942772902032262e-01  3.6108349382410870e-01  4.8936827538847805e+00  3.5444062606095437e+00  3.9834726748154825e+00  3.3758127091159680e+00  1.6411093499544380e+00  2.6350983707004354e+00  2.0365828260754690e+00  -3.0619253908714228e-01  8.0100639974902493e-02  1.7056605822341735e+00  1.4373952900485150e+00  2.1830064397593167e+00  1.5650569336611342e+00  1.4315621484730914e+00  4.3435868552333128e+00  7.4180676311897745e-02  1.0248489129044117e-01  0.0000000000000000e+00  3.5218601865045800e+00  7.0632731555661339e+00  3.0498281885178136e+00  4.0905633779484045e+00  1.8383757734748187e+00  2.6097977314045973e+00  7.1202608847250231e+00  -4.2074687475500466e-01  6.4101749796233509e+00  2.3825748560908884e+00  -3.3375362838434880e-01  2.7313660376762736e-02  5.1079758385131957e-01  -2.8011943503041714e-01  -9.0847520664004244e-01  3.5479628911021974e+00  3.0946044173993208e+00  4.0296075794725246e+00  2.8402823352949751e+00  6.9355180614970555e+00  6.8682570575743966e+00  6.3556119016661796e+00  5.3864252823649252e+00  6.6495872929985769e+00  6.1192490457967965e+00  5.7615562587388158e+00  5.3294536975618874e+00  2.9738350510180447e-02  9.6425875713634013e-01  1.8695808096293047e+00  2.0833427370561792e+00  5.4821319436034956e+00  4.6196485848586404e+00  -6.9555060042489980e-01  8.3057475176683904e-01  1.6779982670379077e+00  1.7570767890139158e+00  9.7398395237325675e-01  1.8284053454365801e+00  1.4262991049574203e+00  4.4662719989476773e+00  5.2112710575794488e+00  4.5658865094503591e+00  2.4524829091393676e+00  3.6266090255550929e+00  -7.2673961242362883e-01  3.1423287044731985e-01  2.0551491810192801e+00  -5.0136849514883886e-01  -2.5723576202970133e-01  1.9384293559696855e-01  8.7798061893584689e-01  4.1397562510732486e+00  2.5025327036470052e-01  2.2877439893182502e-01  3.7054157800787877e+00  6.2676346076227949e+00  7.0513082306331998e-01  2.3854760700633428e+00  2.4735589399955349e+00  8.5351041841845485e-02  3.0595271434450950e+00  6.2438210633036793e+00  4.8545912196948331e+00  3.2941714972780560e+00  1.2582394616673789e+00  4.7754286818425216e-02  4.5963130736304869e+00  6.6064441845188666e+00  1.0786158796233767e+00  4.2204420278187467e+00  4.9191375347426902e+00  1.3746230306043794e+00  3.6172079590093125e+00  0.0000000000000000e+00  0.0000000000000000e+00  0.0000000000000000e+00  0.0000000000000000e+00  0.0000000000000000e+00  0.0000000000000000e+00  0.0000000000000000e+00  0.0000000000000000e+00  0.0000000000000000e+00  0.0000000000000000e+00  0.0000000000000000e+00  0.0000000000000000e+00  0.0000000000000000e+00  0.0000000000000000e+00  0.0000000000000000e+00  0.0000000000000000e+00  0.0000000000000000e+00  0.0000000000000000e+00  0.0000000000000000e+00  0.0000000000000000e+00  0.0000000000000000e+00  0.0000000000000000e+00  0.0000000000000000e+00  0.0000000000000000e+00  -8.7642277337780594e-01  6.8959612318316674e+00  -9.5115105096192712e-02  6.1447191054519941e+00  6.0265676048231809e+00  5.8137483752712669e+00  5.8215464119161897e+00  5.7859069384101680e+00  3.2800529625182038e+00  2.5560718737344397e+00  2.5722866889135809e+00  5.8526455763111560e+00  -7.1085486515072083e-01  5.0694974189134090e+00  2.7158682300740065e+00  7.3871822051285130e-01  5.9854626239265858e-02  -4.7458855016200320e-03  1.8602589299074377e+00  1.2099495230807920e+00  2.2601814074135107e+00  1.4848345942132886e+00  7.2368034191703157e-01  8.8919285493001921e-01  6.4805306325756815e+00  5.7693730345490506e+00  6.4828605380286417e+00  2.7312321082302828e+00  1.6445124462282406e+00  1.8028419912116931e+00  3.6393891891743553e+00  7.6125760796246411e-01  5.7568328920418865e-01  6.7580934149815663e-01  5.8240052068377226e+00  5.7911828654409696e+00  6.2622926733147031e+00  6.9110815143993474e+00  6.5917807093218279e+00  4.4153374170724131e+00  3.8129776204642534e+00  1.4546559804103527e+00  1.0515218903140054e-01  3.5140474093897023e-01  6.4333859013819970e+00  -7.3339008068653899e-02  -6.6357059373617078e-01  1.5532641114737442e-01  -2.4409227633178887e-01  1.2950443581584212e-01  -3.9874372206323322e-01  4.7107788349385364e+00  -3.1709184805799479e-01  4.1610612368938282e+00  4.5915807781721689e+00  1.8542123717218268e+00  -5.6477948791028876e-01  3.6668875683189768e+00  9.6384323971059549e-01  4.5530135492631285e-01  8.6938926891411061e-01  4.7323668549644156e+00  3.7614065498071478e+00  2.8699879420096268e+00  1.7374160392777760e+00  3.4129724360779981e+00  4.2582650286783768e+00  -8.0130293535642028e-01  5.5092187871038600e-01  -7.0830750068745368e-02  3.1539453344961244e+00  -8.8371610361829156e-01  3.8593031884039211e+00  2.9789390863624403e+00  3.4725236107335982e+00  2.8738947260403340e+00  4.7116093279395592e+00  1.6830272882032593e+00  0.0000000000000000e+00  5.1390747545188074e+00  4.8509454116854416e+00  4.4395043083104682e+00  5.3915484386861392e+00  9.1510924946379002e-01  2.9755176348306995e+00  3.7422703410380809e-01  2.6294898137001970e+00  5.0429505530628989e+00  6.7305612509675834e+00  5.8597315437839246e+00  6.1295677762638583e+00  2.8357130747304997e+00  5.0185350564128117e-01  5.7798515263290602e+00  1.7704203668199918e+00  1.7953990527689656e+00  2.0837223359152950e+00  -1.5169714724317920e-01  -2.4618325218321202e-01  1.8800631374010729e-01  1.0774585170890756e+00  6.2185829190993536e-01  3.6971694155013529e-01  3.6983609953130832e+00  1.1567294082440667e+00  2.7163092799197148e+00  4.1520131073769724e+00  1.1328999065285001e+00  1.3249592752646691e+00  5.3892346144568961e+00  4.6204055932686767e+00  3.6744796472150604e-01  3.0090708648554920e-01  5.8138177707506278e-01  9.9910143978637933e-01  2.9732169052641750e+00  6.7310460317160246e+00  -3.4703601097001452e-01  -7.9768547517947797e-01  -4.2980341451425408e-01  -6.2477067803098563e-01  4.9912922813233029e+00  -4.9615608305918318e-01  5.9779781784233927e+00  2.8479916472184116e-02  2.1065654638653966e+00  2.4537567547652324e+00  7.0984681750086311e+00  3.6915476377856136e+00  3.0218391332222576e+00  -4.1422766987583054e-01  4.8805289551310904e-01  2.6309734134347751e-01  3.6374554924714514e-01  2.2164016927198940e-01  1.7196433647101969e-01  4.5171910367461272e-02  2.2366833030259357e+00  5.0481393465278614e+00  -1.9960604219360262e-01  -8.2200612527119798e-02  -6.6279232033232521e-02  6.7951700232077332e+00  1.9875616024013898e+00  0.0000000000000000e+00  2.0285519055636372e+00  1.3664447389488021e+00  8.9157597165167213e-01  4.2011397793659713e+00  5.4319419788772894e-01  1.8100578166891712e+00  5.3531771563273418e+00  5.4296115108932845e+00  4.4498533807199729e+00  6.8883919514289289e+00  6.8441662892027137e+00  3.9985665873248362e+00  7.4910105378006131e-02  7.0551889735473026e+00  6.3090636060264940e+00  4.4541685613128212e+00  1.5584359283936213e+00  4.3331168509925144e-01  1.2179629069926825e+00  -7.1570715803226648e-01  3.1055827834047407e+00  4.2769480719430932e+00  4.1165975748665975e+00  5.4293915714528788e-02  -3.8910284551530139e-01  -9.4997287479402781e-01  1.4195898550359181e+00  1.2622924844771046e+00  4.5621903482729627e+00  4.8461807923679414e+00  2.4298879955463555e+00  1.7475097422120187e-01  1.5155769861283226e+00  4.2450856518339473e+00  -1.1405674490481703e-01  0.0000000000000000e+00  8.3742021963659441e-01  0.0000000000000000e+00  3.4143297977724307e-01  0.0000000000000000e+00  -4.9909034692178145e-01  -5.1313652620569639e-01  6.2213960752962318e+00  1.6897379305703082e+00  6.4642911232691320e+00  5.8591552500986754e+00  6.2071285587587752e+00  1.3429563674573513e+00  8.3916862393094704e-01  -3.0754822360519046e-01  -1.1052883066189845e-01  1.1875684206796013e+00  -7.3320325715096657e-01  6.8661828288282907e+00  2.9245582338842500e+00  2.8724350559241958e+00  3.7408326950095181e+00  3.6648870404006981e+00  5.5234103858769545e+00  4.8716743004386203e+00  4.4526585651325563e-02  3.5358187366019918e+00  5.9190495117488251e-01  2.1124662228631546e+00  3.2538872273140958e-02  4.6160573837333709e+00  3.3417791778414481e+00  2.3942355900205108e+00  3.0338169667897588e+00  4.1446642251861071e-01  6.9955996222426831e-01  4.2932829251947204e+00  -2.8230472659079292e-01  3.9420344998232666e-03  1.6628688756995271e+00  3.4953325629751548e+00  3.1705335274702351e-01  -1.7607954937761117e-01  3.1734035839035185e-01  4.4191369872651389e+00  2.6653116805645194e+00  6.1587521135818699e+00  7.4196889894840645e-01  3.3497256831790527e+00  3.6928453273532464e+00  -3.0445459727465563e-01  9.4973185878661059e-01  1.2766021040831117e+00  5.6055660127875049e+00  3.6575421972362694e+00  4.3162627205194021e-01  3.3324691688534807e+00  3.7334060128777278e+00  2.3887425196841319e+00  6.9778218754331123e+00  4.7271505611464839e+00  -1.8545830167761371e-01  1.3664232141343953e+00  4.2904977479907052e+00  2.8694558601944253e+00  9.0946104199921785e-01  2.2029828706721908e+00  3.0595141818746803e+00  5.5065882251080405e+00  2.5706270578346180e+00  6.6325013556886558e-01  5.4981007624322109e-01  4.7276932460114054e+00  4.7535746388904832e+00  5.1732740596602911e+00  2.0799469089968933e-01  1.5140183166510006e+00  3.0118393409056732e+00  5.8633228130870956e+00  3.6304066945646216e+00  2.8370614651599202e+00  -6.1441523461260750e-02  3.2298972445094729e+00  2.3771217166154011e+00  7.9841066165906097e-02  -7.8820356555869067e-02  -2.8489900093747778e-01  -1.0054056772830766e-01  5.9033607330142059e+00  -1.5210235035719522e-01  3.5875271507346551e+00  5.7954544557764471e+00  3.4358525833535385e+00  9.9853866180780149e-01  -7.4450280559358317e-01  6.4198872907921478e+00  5.2516631292787048e+00  4.0154012308485987e+00  3.9900963452328213e+00  2.0106543825129823e+00  1.9139233900317462e-01  2.2128254594080716e+00  2.3273134399449122e+00  5.1511920848791641e+00  4.3046777814748642e+00  3.1425062652093683e+00  2.8758734408259423e+00  2.2156584991569858e-01  2.3530832681482008e+00  2.2527829316822250e+00  1.9309313633198371e+00  2.6455746380856651e+00  -8.3169446488888535e-02  2.9285781698445618e-02  1.4736482566273719e+00  6.0661840046960442e+00  3.5009879257491141e+00  4.8037070422146213e+00  2.1301598625522860e+00  1.0395615408442118e+00  1.0879256822424506e+00  1.5009078278809713e+00  1.0794242044259645e+00  3.1200690817210246e+00  5.4186960857048048e+00  5.4135595459492993e+00  2.6595600583049288e+00  3.3488097420583123e+00  3.0524020840503985e+00  -5.1387802031573993e-01  1.1432793582751162e-01  5.7655003903231448e+00  6.4510695061486807e+00  3.0536816513832871e-01  -4.1292442667983549e-02  0.0000000000000000e+00  -5.7251082462549374e-01  1.9660750305523065e+00  1.6920016001344123e+00  1.2834035817274003e+00  2.1247660636252115e+00  6.4854792004773287e+00  6.6236940701732809e+00  7.0264985281486805e+00  3.1887073807056368e+00  2.4613153335134608e+00  -4.1621239005382588e-02  3.8645654475395252e+00  3.6949466452555890e-01  2.9442385765214403e+00  -4.7833997666673972e-01  1.7234265516802354e+00  6.0623963531142762e+00  3.1309270452684923e-