<?xml version="1.0"?>
<VTKFile type="UnstructuredGrid"  version="0.1"  >
<UnstructuredGrid>
<Piece  NumberOfPoints="587" NumberOfCells="1024">
<Points>
<DataArray  type="Float64"  NumberOfComponents="3"  format="ascii">-0.9987569212189223 0.04984588566069748 0  -0.9987569212189223 -0.04984588566069723 0  -0.9888308262251285 -0.1490422661761745 0  -0.969077286229078 -0.2467573976902936 0  -0.9396926207859084 -0.3420201433256687 0  -0.9009688679024191 -0.433883739117558 0  -0.8532908816321557 -0.5214352033794979 0  -0.7971325072229226 -0.6038044103254772 0  -0.7330518718298266 -0.6801727377709191 0  -0.6616858375968597 -0.749781202967734 0  -0.5837436722347905 -0.8119380057158559 0  -0.4999999999999996 -0.8660254037844388 0  -0.4112871031306116 -0.9115058523116731 0  -0.318486650251685 -0.9479273461671316 0  -0.2225209339563146 -0.9749279121818236 0  -0.1243437046474858 -0.992239206600172 0  -0.02493069173807316 -0.9996891820008162 0  0.07473009358642436 -0.9972037971811801 0  0.17364817766693 -0.9848077530122081 0  0.2708404681430051 -0.962624246950012 0  0.3653410243663945 -0.9308737486442045 0  0.4562106573531629 -0.8898718088114687 0  0.5425462638657597 -0.8400259231507713 0  0.6234898018587334 -0.7818314824680299 0  0.698236818086073 -0.7158668492597183 0  0.7660444431189778 -0.6427876096865396 0  0.8262387743159945 -0.5633200580636227 0  0.8782215733702283 -0.4782539786213186 0  0.9214762118704076 -0.3884347962746947 0  0.9555728057861406 -0.2947551744109047 0  0.9801724878485438 -0.1981461431993977 0  0.9950307753654013 -0.09956784659581729 0  1 0 0  0.9950307753654014 0.09956784659581666 0  0.9801724878485438 0.1981461431993976 0  0.9555728057861407 0.2947551744109042 0  0.9214762118704076 0.3884347962746947 0  0.8782215733702285 0.4782539786213182 0  0.8262387743159949 0.5633200580636221 0  0.766044443118978 0.6427876096865393 0  0.6982368180860729 0.7158668492597184 0  0.6234898018587336 0.7818314824680298 0  0.5425462638657594 0.8400259231507714 0  0.4562106573531631 0.8898718088114685 0  0.365341024366395 0.9308737486442042 0  0.2708404681430052 0.962624246950012 0  0.1736481776669304 0.984807753012208 0  0.07473009358642439 0.9972037971811801 0  -0.02493069173807291 0.9996891820008162 0  -0.1243437046474852 0.9922392066001721 0  -0.2225209339563143 0.9749279121818236 0  -0.3184866502516843 0.9479273461671318 0  -0.4112871031306114 0.9115058523116732 0  -0.5000000000000002 0.8660254037844385 0  -0.5837436722347896 0.8119380057158566 0  -0.6616858375968592 0.7497812029677344 0  -0.7330518718298263 0.6801727377709194 0  -0.7971325072229225 0.6038044103254774 0  -0.8532908816321556 0.5214352033794981 0  -0.900968867902419 0.4338837391175582 0  -0.9396926207859083 0.3420201433256689 0  -0.9690772862290778 0.2467573976902938 0  -0.9888308262251285 0.1490422661761747 0  -0.5 0.5 0  0.5 0.5 0  0.5 -0.5 0  -0.5 -0.5 0  0.5 0 0  0 -0.5 0  0 0.5 0  -0.5 0 0  0.5 -0.25 0  0.5 0.25 0  0.25 0.5 0  0.25 -0.5 0  -0.5 0.25 0  -0.5 -0.25 0  -0.25 -0.5 0  -0.25 0.5 0  0.7293873367658363 -0.1249999999999999 0  0.1249999999999999 0.7287300493784333 0  0.125 -0.7287300493784333 0  -0.7290246392191599 0.125 0  -0.733847175034689 -0.1483504069269138 0  0.7302728250168248 0.1331997198023821 0  -0.1339739881382499 0.731545717058581 0  -0.2070140794513734 -0.7357717763015714 0  -0.6848798293770213 0.375 0  -0.6848798293770213 -0.3750000000000001 0  -0.3566023170666912 0.695578553021055 0  0.6964652724028926 0.3519404540471411 0  0.682549003528962 -0.375 0  0.3438700755094845 0.6998206064625863 0  0.3438700755094845 -0.6998206064625863 0  -0.375 -0.6445944910635881 0  -0.03925620332970525 -0.8148020172248744 0  -0.5264248877489114 0.660115929995676 0  -0.8395325766230914 1.249000902703301e-16 0  -0.01687678625675526 -0.6577441010679321 0  -0.6557963429065412 0.5312066051110959 0  -0.6506439103521667 -0.545955065204246 0  0.02115350351583721 0.8482287153670953 0  0.5645332723272563 0.6396939634949967 0  0.661625357802874 0.5100881961665439 0  0.5645332723272564 -0.6396939634949967 0  -0.5336641628763445 -0.6554298757663499 0  -0.8003771639333077 0.2664969030130474 0  0.8340953750567013 0.003742285179421628 0  0.6670466354751207 -0.5267442246483612 0  0.8069612411873487 -0.293709871998705 0  -0.260896766648456 0.8101758035047882 0  -0.8023533495433199 -0.2817655373373812 0  -0.125 -0.5 0  0.8115399786456639 0.2577429302016325 0  -0.5 -0.125 0  -0.6243302247132029 -0.0625 0  0.2476920734242837 0.8146428239829797 0  0.2476920734242838 -0.8146428239829797 0  0.08966091490402935 -0.8610562681066317 0  -0.3188359005116316 -0.812380625543877 0  -0.125 0.5 0  -0.0625 0.6183690650056178 0  0.8639258231855429 -0.1302158661327731 0  0.6511329887581228 0.004369749235402018 0  0.5 -0.125 0  0.5 0.125 0  0.6146936683829182 -0.1875 0  -0.6117951946404439 0.06747830852615812 0  -0.642403435604066 0.2386020222244552 0  -0.8578394315117827 0.1487815630619558 0  -0.1100395259080555 0.8611861746231126 0  0.2238632287239861 0.6342373746618165 0  0.125 0.5 0  0.125 -0.5 0  0.2238632287239862 -0.6342373746618165 0  -0.1919684339689453 0.6157635581870904 0  0.8635298118937829 0.133708810303192 0  0.6348330312261237 0.2304319245823095 0  -0.8612887736437689 -0.1672074142424394 0  -0.6373260882127343 -0.2461116151796334 0  -0.4475277392212669 -0.7496491867503736 0  0.375 0.5 0  0.4387495268981039 0.6130483122023107 0  0.375 -0.5 0  0.438749526898104 -0.6130483122023108 0  -0.5 0.125 0  -0.375 -0.5 0  0.5 -0.375 0  0.5 0.375 0  -0.375 0.5 0  -0.5 -0.375 0  -0.5 0.375 0  -0.1406999883281954 -0.626689039047605 0  0.4793257271675416 0.7317147389896821 0  0.4658101568916132 -0.7378954018622725 0  0.0006495366865848645 0.7255388258984637 0  -0.153271755047695 -0.8692473178628886 0  -0.2591674342375825 -0.6184025339924066 0  0.3641080723044428 -0.8144641418594577 0  0.3641080723044426 0.8144641418594576 0  0.615642256020971 0.1148942507510502 0  0.1361849338349009 0.8433215310608596 0  0.06608553742215939 0.6143650246892166 0  0.09352406898445284 -0.6143650246892167 0  0.8087264197969033 0.371694028505758 0  -0.7209611114839403 0.006523312537166912 0  -0.7864318037669464 -0.4282679342782721 0  -0.7864318037669463 0.4282679342782724 0  -0.5932905544702824 0.4387581291017222 0  -0.5924399146885106 -0.4375 0  -0.4578258107308316 0.7559627590474495 0  -0.3020038137445455 0.5984964090584689 0  0.7914028729403609 -0.4057479965634847 0  0.5948374249280203 -0.4427032645852348 0  0.6008297954050736 -0.2985455253398656 0  -0.4259778456769938 0.6034499769960586 0  0.7144422012870706 -0.2340613019364168 0  -0.09998245956972435 -0.7261405866494774 0  0.5850285898241983 0.4375 0  -0.6319017713520266 0.6478568852031628 0  -0.2352323899046357 0.7098497393844995 0  -0.3678113271626764 0.8137640709823691 0  0.336322430585474 0.596309604941485 0  0.3235978444918289 -0.594327249811648 0  0.7381295147862025 0.4440305619723875 0  0.6657022636536222 0.6143127192196338 0  -0.6358868100857492 -0.647423300809142 0  0.5963767713257159 -0.08462621333307853 0  0.5940132856521216 0.3275217371126666 0  -0.5924399146885106 0.3289743032093209 0  0.6715751184272055 -0.6231306466474754 0  0.914018947096468 -0.04876041757047764 0  -0.3000476483400528 -0.7068396392633303 0  -0.4584051604566749 -0.5903694766234695 0  -0.0625 -0.5720626698513136 0  0.8817322505318831 -0.2280907844459654 0  -0.5704877798342236 -0.3125 0  0.9130630557287283 0.0541742917840323 0  0.1833590030154052 -0.8878413949057762 0  0.04647441217241853 -0.7786409225386305 0  0.001259472666235599 -0.9046613334442301 0  -0.5939193477615521 -0.1569181795758953 0  -0.2495048287009326 -0.8799757970592784 0  0.7427265682174049 0.03682676681068422 0  -0.5699118336376512 0.5743864898189631 0  -0.5886608274121096 0.15991550993558 0  -0.8077214960521079 -0.08915821075942315 0  -0.9040125718744763 -0.07326015142049892 0  0.7967282486000062 -0.1929983754869256 0  0.2177632262119708 -0.726819533724302 0  0.2537920759362991 0.7220606649204943 0  -0.8505575334168811 -0.3585400664245872 0  0.2055681528852957 0.9006529252788448 0  -0.701270193875521 -0.467187999274322 0  0.8926315232702722 0.2188200358306226 0  0.7261907809242967 0.2246492402187786 0  -0.8473236363688168 0.3571768645048239 0  -0.7597500985308134 0.5179888464718053 0  -0.05013426112303254 0.7970840865597032 0  0.757959179517758 -0.4957784776378366 0  0.7459608040076353 0.5304304881146502 0  -0.9058609945741203 0.06735567427086482 0  0.5633265201106249 0.1829465079108001 0  -0.8877237546098472 -0.273826513829537 0  -0.8867028662710542 0.2735116114814034 0  0.1629777549029325 -0.8050586908155782 0  0.5812781398530815 -0.52739567877924 0  -0.2015340060651291 0.8831939011333005 0  -0.7139833150554491 -0.2910454476935763 0  -0.7113633964999865 0.5969047636361557 0  -0.1958211624196888 -0.5637510163780106 0  -0.735699699933714 -0.5449701724737123 0  -0.8039545394233876 0.07989477285452812 0  0.1665241453597041 -0.5729423852285364 0  0.149901142265397 0.5851849053249866 0  -0.1775103078579459 0.8030233242790298 0  0.7987179727637174 -0.07443619541860703 0  -0.425346044407385 -0.8296681539699216 0  0.8732702738693814 0.3162773925866937 0  0.08143760254031492 0.9106700070789009 0  -0.330470255123177 -0.5722972455317941 0  0.3059902267064915 0.8732910296738982 0  0.3059902267064915 -0.873291029673898 0  -0.5334884695618113 -0.7417523859023104 0  0.5451121408738671 -0.7582048176354531 0  -0.764060319800233 0.3474825639830673 0  -0.7169458710488604 0.2777190620332669 0  0.5744526852894513 0.04070729033322187 0  -0.06983487055432744 0.9318815854538482 0  0.7193638549419048 -0.04271061992706224 0  -0.5394675466302798 0.7419228968218219 0  0.5799031458603561 0.5196159403404389 0  0.0179530089748084 -0.5842107841424788 0  -0.7082662491008882 0.4538504589566228 0  -0.5797648376751635 -0.587453942317208 0  0.468143373179861 0.8108481075741963 0  -0.4551784085033173 -0.6701603892580851 0  0.05109051340834014 -0.6991752813368084 0  -0.07561790547486294 -0.8852602353102181 0  -0.7843997435620556 0.18
[...]
<PointData  Scalars="f_289"> 
<DataArray  type="Float64"  Name="f_289"  format="ascii">0.0000000000000000e+00  0.0000000000000000e+00  0.0000000000000000e+00  0.0000000000000000e+00  0.0000000000000000e+00  0.0000000000000000e+00  0.0000000000000000e+00  0.0000000000000000e+00  0.0000000000000000e+00  0.0000000000000000e+00  0.0000000000000000e+00  0.0000000000000000e+00  0.0000000000000000e+00  0.0000000000000000e+00  0.0000000000000000e+00  0.0000000000000000e+00  0.0000000000000000e+00  0.0000000000000000e+00  0.0000000000000000e+00  0.0000000000000000e+00  0.0000000000000000e+00  0.0000000000000000e+00  0.0000000000000000e+00  0.0000000000000000e+00  0.0000000000000000e+00  0.0000000000000000e+00  0.0000000000000000e+00  0.0000000000000000e+00  0.0000000000000000e+00  0.0000000000000000e+00  0.0000000000000000e+00  0.0000000000000000e+00  0.0000000000000000e+00  0.0000000000000000e+00  0.0000000000000000e+00  0.0000000000000000e+00  0.0000000000000000e+00  0.0000000000000000e+00  0.0000000000000000e+00  0.0000000000000000e+00  0.0000000000000000e+00  0.0000000000000000e+00  0.0000000000000000e+00  0.0000000000000000e+00  0.0000000000000000e+00  0.0000000000000000e+00  0.0000000000000000e+00  0.0000000000000000e+00  0.0000000000000000e+00  0.0000000000000000e+00  0.0000000000000000e+00  0.0000000000000000e+00  0.0000000000000000e+00  0.0000000000000000e+00  0.0000000000000000e+00  0.0000000000000000e+00  0.0000000000000000e+00  0.0000000000000000e+00  0.0000000000000000e+00  0.0000000000000000e+00  0.0000000000000000e+00  0.0000000000000000e+00  0.0000000000000000e+00  2.0000000000000000e+00  -1.0000000000000000e+00  -1.0000000000000000e+00  2.0000000000000000e+00  -1.0000000000000000e+00  -1.0000000000000000e+00  1.0000000000000000e+00  2.0000000000000000e+00  -1.0000000000000000e+00  -1.0000000000000000e+00  1.0000000000000000e+00  -1.0000000000000000e+00  2.0000000000000000e+00  2.0000000000000000e+00  -1.0000000000000000e+00  1.0000000000000000e+00  -4.8184759647924591e-01  4.8225617587298580e-01  -4.6999633910499122e-01  9.8792356343023480e-01  9.5503042498938395e-01  -4.7528312551807739e-01  5.0990295222468052e-01  -3.7666925331100198e-01  9.7172165089617235e-01  9.5295850260363091e-01  5.6084368878552304e-01  -4.4885288614648161e-01  -4.8940347689364810e-01  3.5699897493369753e-01  -4.6197121021663262e-01  -3.2224223479843317e-01  -2.9455688653259887e-01  5.8269350502911865e-01  5.7191011706056560e-01  -6.2076086521115492e-01  7.3915991553129445e-01  6.2375899026502879e-01  2.7439846699755499e-01  -6.9512070613079457e-02  -3.2084874744485026e-01  -3.6483040283233048e-01  2.4661324216499217e-01  6.0329394159460281e-01  -2.8376399423154325e-01  -3.6462174553756105e-01  -2.6608228345872170e-01  3.1742193462815277e-01  5.7328599392122415e-01  -1.0000000000000000e+00  -2.6612545736193488e-01  2.0000000000000000e+00  1.4480589966601067e+00  2.5164049304530406e-01  -2.6401334424129053e-01  -2.1604825184103515e-01  -1.5494393670036471e-01  1.0000000000000000e+00  7.4784370832152058e-01  -2.1598072701987037e-01  -6.5798208499252986e-01  -1.0000000000000000e+00  -1.0000000000000000e+00  -7.2515754744192673e-01  1.5038975430992201e+00  1.3114841796276335e+00  4.6622090324352544e-01  2.4972789767521472e-01  6.3728856301800163e-01  1.0000000000000000e+00  -1.0000000000000000e+00  -6.6433813366239869e-01  7.5432679999888108e-01  -2.1373972923478957e-01  -6.6083067100686743e-01  4.4099390273368794e-01  1.3239729307298300e+00  -4.8522684369855337e-02  1.0000000000000000e+00  2.6612053842374289e-01  -1.0000000000000000e+00  -6.1796569528864065e-01  2.0000000000000000e+00  -1.0000000000000000e+00  -1.0000000000000000e+00  -1.0000000000000000e+00  1.0000000000000000e+00  2.0000000000000000e+00  2.0000000000000000e+00  -6.6164183880313165e-01  1.0617975952775580e-01  -2.7733749955180653e-01  5.1883004268403710e-01  -1.7032088601312129e-01  -6.0291003594729953e-01  -2.0440411058421673e-01  1.5990726235338620e-01  -7.2942514084285548e-01  2.5648391383117786e-01  7.4335283101402516e-01  -7.2608685758029223e-01  -2.0228357271221942e-01  1.0424786888493249e+00  4.2275802582573996e-01  4.3929753739186006e-01  1.3412663508130946e+00  1.3181836228680528e+00  3.3583631494488658e-01  7.9542064882715213e-01  -2.2452343640166306e-01  -6.7321603049125278e-01  -7.3387508696138537e-01  8.5161722242163163e-01  -4.8615974743319190e-01  -4.5225438616126934e-01  -6.6534847959679078e-01  3.9873852892820100e-01  5.4628612421664291e-01  2.5602302063848559e-01  6.1489374848463141e-01  -7.3718439184578788e-01  -2.6886493905115660e-01  -1.2219470645051388e-01  2.6809473058826649e-01  -7.7800141521105937e-01  -7.2587434217486924e-01  1.4928142851414814e+00  -1.9853050704129460e-01  -1.3786878504844841e-01  -3.3940651797470911e-01  4.1392659056776804e-02  -8.1787076919043367e-01  -1.5486840377572497e-01  1.6132708345037627e+00  -1.3862997723412265e-01  -1.5132480544589030e-01  -3.7174937283714898e-01  -1.4312123334747989e-01  1.5655974300603113e+00  -1.1137790142985372e-01  -4.6224833022762107e-01  9.1154324266630482e-01  1.5915220379693600e+00  6.8028554975829081e-01  3.2174531838494536e-01  -3.2726415743708398e-01  -4.5439159251772571e-01  4.1844496841466283e-01  2.9308603371509856e-01  1.2813163275377359e-01  6.8044635040737178e-01  -1.3574488004555843e-01  -4.5590523694494284e-01  3.1250046806913945e-01  3.5161084048531038e-01  3.7848834659926506e-01  -2.0426783384460398e-01  -1.4953877231536469e-01  3.1796850862025161e-01  -8.4399749653795553e-01  2.5877579206887796e-01  2.6559502201085811e-01  -3.0783406372071509e-01  -5.8962376884093359e-01  1.8573058967657780e-01  9.3298893811995132e-01  3.1287801242901669e-01  -8.0725846316062755e-01  3.3701054839454364e-01  6.9853012871637166e-01  -8.2051182586402061e-01  7.8975779170161675e-01  3.5561034694376681e-01  -3.4794073461412783e-01  -4.6069494340780018e-02  -1.2346298668477849e-01  1.4991430249934698e-01  -6.5619351010362525e-01  1.1868228445563803e-01  -1.2910129234501658e-01  5.9527762061240407e-02  -1.4378991556088752e-01  6.5945837297902332e-01  9.4323794642049741e-01  -8.2871065556126444e-01  1.1917976847572763e-01  -5.1160922675738119e-01  2.7634458931518063e-01  -4.7821717890934679e-01  -7.9593985456336824e-01  7.1445563256907996e-01  6.1185184708730267e-01  6.7858622084243703e-02  -1.8545100901359472e-02  -5.3581730703944463e-01  -1.6603757740420311e-01  7.3114926066296515e-01  4.0160540851218263e-01  5.7971420957601461e-01  -4.4923909512342014e-01  1.1026586268693663e+00  6.3535738209794645e-01  -3.2560581381019266e-01  -6.2971992219586259e-01  -4.4024790469924038e-02  1.3002706593798295e-02  -1.3193299610627759e-01  -1.6232143818317282e-01  -1.7196958149037617e-01  -4.4804484185239929e-01  1.3702000822963728e-01  -2.9849548584855962e-01  -4.5224296308261447e-01  -1.6085427615516698e-01  -1.4690948915385799e-01  1.0398177598685523e+00  1.1129179209667253e+00  -2.3391391413435705e-01  8.3518120952553210e-01  3.7946233868003554e-01  -3.7533997550586845e-01  -9.4315533268162319e-02  2.1509209565667325e-01  4.1389584650794342e-01  1.6533363843198079e-01  -5.9544742444719634e-01  -3.3688644205205870e-01  -3.3608083012142259e-01  -1.4398041732290592e-01  -4.1818002891906514e-01  2.0419333650912361e-01  9.1979687206094163e-01  6.1632127540006354e-01  1.3028205572900777e+00  -7.7701722830037501e-01  -1.1374106275811696e-01  2.8546728450783032e-01  2.4790384015194319e-01  1.6361559514172004e+00  1.6693574640037093e-01  2.0092436093632771e-01  1.2340938166284108e+00  2.7242479389354285e-01  -3.1262151389954412e-01  1.3249225018162530e-01  1.6587108475345480e+00  2.0000000000000000e+00  1.3467817506390520e+00  1.7198866418135339e+00  -6.2012270607536724e-01  1.1659977746780106e+00  1.1424751727494471e+00  1.6668652018556873e+00  1.2391482934741518e+00  5.3192659744617021e-01  -5.7521895363220266e-01  -5.9450702396424338e-01  7.6981193886398269e-01  -8.2902549295796069e-01  -5.8412055223447812e-01  -5.7859639484729231e-01  -8.1827697212585893e-01  -1.0000000000000000e+00  -1.0050237399322792e-01  -2.6682272429597248e-01  -6.5187398448196196e-02  5.1109912982991679e-01  1.2012631710796602e+00  -8.7710869394451552e-02  1.8087036159571759e-01  -2.5334364019745498e-01  8.3479354288303154e-01  9.9999999999999989e-01  1.0000000000000000e+00  8.3821916020549092e-01  1.0000000000000000e+00  6.6887939803648211e-01  0.0000000000000000e+00  1.2253737313754798e-01  -1.1551889439359930e-01  3.5839732241437200e-01  2.3706576068794280e-01  -3.7870741731680024e-01  1.0000000000000000e+00  1.0000000000000000e+00  4.6041811924619852e-01  -6.3483222169235509e-01  -5.7541030824304318e-01  -8.4809046851960113e-01  -8.3015233614679762e-01  2.0000000000000000e+00  0.0000000000000000e+00  6.9049675532798105e-01  -7.8698803473256795e-01  -1.0000000000000000e+00  5.8533624291909936e-01  -5.6857789785362034e-01  1.2724892700341062e+00  8.8067045590006265e-01  -4.2315316236240491e-01  8.0648431509672958e-01  6.7141586313492663e-01  5.8717439736724431e-01  4.7470854285887515e-01  6.9259142191990519e-01  -2.2388107480031281e-03  -3.1921493474212004e-01  -4.5021277044216446e-01  -3.1454653967046070e-01  7.8088175816995190e-02  -4.6544338884624153e-01  -1.0000000000000000e+00  -8.5651582515477520e-01  -6.1210105911620816e-01  -2.5408047831314673e-01  -6.6318955722042072e-01  -8.2768028281197237e-01  -5.0225354621224028e-01  3.7558991489392346e-01  2.7338121451292574e-01  0.0000000000000000e+00  1.0000000000000000e+00  -1.0000000000000000e+00  2.0000000000000000e+00  -8.4382051573083747e-02  -8.9852473481981457e-02  1.7545156280512324e+00  -6.1281197067566107e-01  0.0000000000000000e+00  -1.0000000000000000e+00  2.0000000000000000e+00  -1.0000000000000000e+00  -1.0000000000000000e+00  -1.0000000000000000e+00  2.0000000000000000e+00  -1.0000000000000000e+00  -1.0000000000000000e+00  -1.0000000000000000e+00  -1.0000000000000000e+00  -1.0000000000000000e+00  -9.9999999999999989e-01  1.0000000000000000e+00  1.9999999999999998e+00  2.0000000000000000e+00  2.0000000000000000e+00  -1.0000000000000000e+00  -1.0000000000000000e+00  1.0000000000000000e+00  1.0716731583680511e-01  4.2654412485788065e-02  0.0000000000000000e+00  7.3693682068791821e-01  8.9032254475889028e-01  -3.9808226041316108e-01  -1.0705846346170381e-01  9.2869105125848972e-01  0.0000000000000000e+00  5.5635252515745326e-01  8.6961209832893815e-01  -9.3000926311432475e-02  1.2888003458063197e+00  -1.2430544972624810e-01  8.1681600088838158e-01  -8.0000675476301419e-01  2.0877062368372773e-01  1.6254451093199205e+00  9.9188873932370669e-01  5.9462915149137585e-01  -3.2416062302663923e-01  5.4410154017497070e-01  7.8313460569572974e-02  0.0000000000000000e+00  -7.9128178356443657e-01  -6.0792586121202352e-01  -4.9026387473966737e-01  -8.3983973640120058e-02  3.9557085510494006e-01  -8.7192668950845975e-01  -6.6517558248122799e-01  -5.9628890864799289e-01  -3.2778457612412798e-01  8.7390618178992752e-01  1.8036818036349631e-01  -2.3505898788257268e-01  -1.3974145078390007e-01  5.2403315481705448e-01  -7.0610050505259314e-02  2.8376869126502091e-01  7.8651917686405615e-01  1.0811953042723934e+00  -2.5178994484627160e-01  -9.5895927695886424e-02  7.9889969226725574e-02  -1.4365073662065464e-01  -1.8077542557338305e-01  -8.6855821045917048e-01  9.6240845798010199e-01  -2.1455149263506879e-01  2.8953937422263659e-01  2.7144909118177030e-01  3.6483511601423529e-01  2.3307904238965063e-01  2.2576902574997315e-01  6.9555159523149168e-01  2.0386210453168763e-01  6.7757656706838398e-01  9.2483362800379854e-01  -7.1078716532376185e-01  0.0000000000000000e+00  -4.8439298021559724e-01  -9.9693630045678147e-02  -1.0584855514926103e-01  -3.1575035758269132e-01  8.2330883315222125e-01  0.0000000000000000e+00  6.2688030732919797e-01  4.0395746944455624e-01  -2.9273666739631676e-01  -7.9575066400358663e-01  2.7662660634799913e-01  1.6168124836701325e+00  1.2630589100741589e+00  -4.9167792605934296e-01  -3.2495839984365094e-01  4.7202809526994521e-01  -2.2461522804303724e-01  -1.1016224995227610e-01  1.2841305917456205e+00  1.2644987651567352e-01  1.5755636348538304e+00  9.0426638024611794e-01  0.0000000000000000e+00  -7.8283058300490838e-01  -5.2074099921447103e-01  -6.1656859048931345e-01  4.2434205261677971e-01  -1.8016018271615367e-01  1.1749503802981853e+00  -8.1026560611416248e-02  4.8138571281136089e-01  -4.4767046798291249e-01  -3.7680278428908348e-01  -7.0273265163067966e-01  4.4699289369827117e-01  2.0556992038962596e-01  -7.0844074043753336e-01  -2.8671843390085561e-01  7.5878588635548017e-01  -1.3467954077915820e-01  -1.0972232302549816e-01  -2.7119251569914793e-01  7.6223422266337726e-01  -5.4799063768367351e-01  -3.6990567580531353e-01  1.2268570540905080e-01  -2.2882246414046009e-01  2.8217585273141060e-01  -4.5630513583512972e-01  -4.9126130118619722e-02  -2.2263801014965254e-01  5.8741763486898202e-01  2.3431216827990903e-01  2.0672575554794573e-01  0.0000000000000000e+00  3.2816351053911952e-02  -1.3162709360607913e-01  0.0000000000000000e+00  -7.5183915371465249e-01  -4.8013754693379035e-01  1.5801878620500800e+00  -3.1452751601394152e-01  0.0000000000000000e+00  5.9210044240454285e-01  -7.2418104058962007e-01  0.0000000000000000e+00  -8.9884987736768496e-01  -7.3777804083548892e-01  8.8630254376882545e-01  -6.9622120487269801e-01  -1.3856772877997700e-01  -3.1798019235551933e-01  1.5722267914283017e-01  -3.9321472577987449e-01  7.9608970940059043e-01  0.0000000000000000e+00  0.0000000000000000e+00  4.2917572240809121e-01  6.7684943473204529e-01  -9.4011097833183829e-02  0.0000000000000000e+00  -1.8568432832092985e-01  -9.0168089512337166e-02  0.0000000000000000e+00  -5.8508256699085071e-01  5.1872622982704852e-01  2.6564004431724564e-01  4.1838520104462557e-01  1.3937112999560863e-01  -8.6318369577843101e-01  9.5960041714143396e-01  0.0000000000000000e+00  5.0890239634411261e-01  1.3178796405577331e+00  3.8750744467256187e-01  -8.7320911027038983e-01  -4.9179941473017597e-01  1.7417403211866749e+00  -2.2287401851930111e-01  -8.6984353356609112e-01  1.0071802063975237e+00  0.0000000000000000e+00  -2.9272797719101828e-01  -3.1844874770419318e-01  -2.2296161093808833e-01  -3.7193191773127332e-01  0.0000000000000000e+00  8.1948453011415817e-02  0.0000000000000000e+00  -8.7128516700128822e-01  -5.3379209001321182e-01  6.8227665807331661e-01  0.0000000000000000e+00  1.7866042046771611e+00  -3.5936673872129310e-01  </DataArray> 
</PointData> 
</Piece>
</UnstructuredGrid>
</VTKFile>