<?xml version="1.0"?>
<VTKFile type="UnstructuredGrid"  version="0.1"  >
<UnstructuredGrid>
<Piece  NumberOfPoints="14566" NumberOfCells="28705">
<Points>
<DataArray  type="Float64"  NumberOfComponents="3"  format="ascii">0 3 0  0 0 0  2 0 0  2 3 0  2 1.5 0  0 1.5 0  1 0 0  1 3 0  1 1.083333333333333 0  1.1875 2.041666666666667 0  0 2.25 0  2 0.75 0  0 0.75 0  2 2.25 0  0.546235380116959 1.875 0  0.5 0 0  0.5 3 0  1.5 3 0  1.5 0 0  0.75 0.5416666666666666 0  1.397727272727273 0.6098484848484849 0  0.7400140009560829 2.446414029671393 0  0.4305555555555555 1.125 0  1.413194444444444 1.5 0  1.511633211678832 2.466088807785888 0  2 1.125 0  2 1.875 0  0.9531937950269089 1.626186072001953 0  0 0.375 0  0 2.625 0  1.446040104181028 1.054219142057518 0  2 0.375 0  1.613091388971457 2.052622604569185 0  0.3978050788698214 0.7279316172646906 0  1.122034767567557 2.604844747138268 0  0.3976808956026018 2.243942213143948 0  0.4013368467572315 2.628399882254177 0  0.3915890028118316 1.51493140652058 0  0 1.125 0  0 1.875 0  2 2.625 0  0.3745170793253871 0.3535227724338494 0  1.25 0.271574440052701 0  0.7159977215410738 1.350437455814274 0  0.7085197291365257 0.8893370480908342 0  1.706597222222222 1.6875 0  1.696549685796197 1.296777466148165 0  0.8698085846740859 1.947017983326575 0  1.057825596389426 0.7281189555125724 0  1.726188774537831 0.5625 0  1.710431770995195 0.8791872695688975 0  1.75 0 0  1.75 3 0  0.8440250195969674 2.735409186889472 0  1.557361044457889 0.3036611226867964 0  1.021382495358583 2.307750712964459 0  0.9438037150343664 0.3025888941184255 0  1.422209083254015 1.809204266327822 0  1.1296651354649 1.367957652701011 0  1.705681205609129 2.699620803739419 0  0.6535540818054447 0.2653941918737499 0  0.2152777777777777 0.9428714285802794 0  0.6764082332685148 2.163317662154022 0  0.2152777777777777 1.300399603586393 0  0.6738797158697101 1.626558021437488 0  0.2022665791879026 2.438046698110248 0  0.25 3 0  1.38627383238228 2.730439726544761 0  0.2731176900584795 1.979408052870387 0  1.788988139129612 2.433013002880604 0  1.395884399116 2.218504617781978 0  0.1889297394923665 1.6875 0  0.1980492074855439 0.5524276374026066 0  0.25 0 0  1.21434773979559 0.9359132279393747 0  1.162660410385986 1.781867069461707 0  1.25 3 0  0.75 0 0  1.25 0 0  0.75 3 0  1.116873502935106 0.4842556563055509 0  1.277400787068369 2.424746368423087 0  0.6657421642148181 1.120641644021926 0  0.6306361732889977 2.648994399124817 0  1.794501480514241 0.241165679657173 0  0.1995152701183739 2.762823153254418 0  0 0.1875 0  1.470025947155241 1.280086929735272 0  1.484570527100927 0.8252183799387092 0  1.242989691626331 1.165848469786021 0  2 2.0625 0  1.778024971434719 2.207218987747306 0  1.808812959484196 1.96875 0  2 2.8125 0  0.5594399178162468 0.4532199053554985 0  1.780142342986769 1.09053052213301 0  1.125 2.822181958293781 0  1.15437464724632 1.574257741882416 0  0.9258053099401093 1.28898157144858 0  0.9414800874564364 2.500417763956405 0  1.411666711023481 2.014022948820662 0  0.2133789240500979 0.2115885654001305 0  2 0.9375 0  0.3965527976610288 1.72604344321965 0  0.608995122443001 0.7011531686631721 0  0.4138123102177461 0.9264961621055305 0  0.5749863647331368 2.334798630725083 0  0.1987198992492864 2.239057349078047 0  0.4984282205902797 2.070129278380434 0  0.4102452351893879 1.319883055253778 0  0.8831982801865097 2.153602641944079 0  1.623548628757152 1.494145162716432 0  0.2033775143403518 0.7477945287866119 0  0.1940536105539605 1.49340186742834 0  1.202090490568975 2.235671565210217 0  0.8466070242559173 0.7295024517030759 0  0.9532944875716811 0.8934161868796685 0  0.3945591291744741 2.436218116639167 0  0.390119492358766 2.83027622360013 0  0 2.0625 0  1.588911207098181 2.279111216118611 0  1.611152302833269 1.857591555864952 0  1.812477793912983 1.451840609478801 0  2 1.3125 0  0.7299720177885035 1.812388578202914 0  0.3990727621832508 0.1632073431396914 0  0.3931607960443144 0.5402918167664157 0  0 2.8125 0  0 1.6875 0  2 2.4375 0  0 2.4375 0  0 1.3125 0  0 0.5625 0  0 0.9375 0  2 0.5625 0  2 1.6875 0  2 0.1875 0  0.625 2.846709428529378 0  1.253682590775686 0.7434363360896369 0  1.523086796648675 1.651807599666824 0  0.9411304688418869 0.5621263133613359 0  1.125 0.1357872200263505 0  1.41562649854122 0.1731862647719977 0  1.300240745075605 0.4510277883928345 0  1.555879490833153 2.817654319666713 0  0.863104561805179 1.463788789510293 0  0.572634432547554 1.469842074183063 0  1.642240545166245 0.1445731778058382 0  0.875 0.1332980020323718 0  0.2487211794256408 1.121635516083336 0  1.573217117267048 0.6642797787692021 0  1.532509884912857 0.4854117220234143 0  1.318319980339258 1.657499541059452 0  0.6967186728143467 1.986865355086986 0  1.301817177279576 1.331659278786805 0  0.8248882106199859 1.030466229808272 0  1.605750972809839 1.139912728256475 0  1.843199325955406 1.797053511030686 0  0.2063238460867002 0.3820355271287071 0  0.9827851948228239 1.80512896198594 0  1.826970058610837 0.415996684272712 0  1.815548982041781 0.725681816908465 0  1.014647505823572 2.041356564123892 0  1.284408782125187 1.904792104550927 0  0.8525918307249374 2.320050269794524 0  0.2372387727050605 2.600742842596934 0  1.373827344559335 2.562638247702516 0  0.5704448974488513 1.261876095074753 0  1.538823098639072 2.640881839270544 0  1.660201480254432 2.532489581187561 0  0.587112621207044 2.494677032146202 0  0.5461561799319455 1.015291367624069 0  1.572288330999834 0.9577191413849884 0  1.867150148288836 2.71875 0  1.091315479755366 2.44965514014893 0  1.024103073242107 1.485231137654558 0  1.091268073330427 1.213602378001351 0  1.875 0 0  1.875 3 0  0.125 3 0  1.85164596646159 1.239574888136519 0  0.5144737921873372 1.618478755254639 0  0.789902825397775 1.213881397553005 0  0.7871809298881783 0.3737161797805977 0  1.096901857517183 0.2870816670855633 0  0.8110918697082464 2.584047356465716 0  0.9744132373451575 2.651779594380161 0  0.9648544366790877 2.842449488677214 0  0.625 0 0  0.5537257935489299 0.1460342872932163 0  1.7705015452388 2.843516086018942 0  0.2713847131997923 1.821813683845335 0  1.671841286637515 0.4171978006585984 0  1.280104727509329 2.845993023801107 0  0.5072888412610886 2.735536974420782 0  1.875977913857691 1.59375 0  1.401867863809804 0.3303526277085793 0  0.125 0 0  1.087945285896537 1.911207589900836 0  0.5539485640670052 0.8506752587845635 0  1.802031380552774 2.583004008860892 0  1.247745080385359 0.5925801107113228 0  1.846532469172136 0.9514635756358938 0  0.5153558527085855 0.3136387920935104 0  1.259950669466945 2.655447264867863 0  0.3543785282176074 2.102738236554382 0  0.1206765555899243 1.96875 0  0.4171673824311519 1.94679909469644 0  1.341725400962083 0.8616865987507794 0  0.854245297200512 1.73446714966294 0  1.266296445207783 1.476175406081331 0  0.7308144723714898 0.1432494811275388 0  0.1053667300439123 1.03125 0  0.1883996934132187 2.095616965421765 0  0.768270499960176 2.857490829759849 0  1.872206565425325 2.315809268737681 0  0.605673697931064 1.748526679480376 0  0.8134983007371885 1.597494620919787 0  0.7117096079616703 1.491055883497182 0  0.1027173614314198 0.84375 0  0.7128018016146636 2.308840771762036 0  0.1027094327320722 1.21875 0  1.421885244136567 2.869709256359061 0  0.3030107335519462 1.40771559083607 0  0.1294370239590212 1.816488826586231 0  0.1046314960532825 2.340260612134282 0  0.3066854642776671 0.8393938660272582 0  0.529850680728582 2.204447295200468 0  0.2974747181276535 2.338478572792295 0  0.100880635356019 2.53125 0  0.1038707739568649 0.6527523034992539 0  1.863094387268916 0.5487629667361756 0  1.290517272107038 2.131470167148579 0  1.52111741644401 2.157338416251437 0  1.464641663798353 2.337208835657457 0  1.281373773327221 0.1357872200263505 0  1.100886779012995 2.145731672614935 0  0.4928959427886405 0.6317006424650523 0  0.1060944877986065 0.2925173789259402 0  0.875 3 0  1.625 3 0  0.2831533857306817 1.592870651929527 0  0.09446486974618326 1.59375 0  0.1003055413557448 0.4622840038043601 0  0.3012082573901707 0.6364451147081118 0  0.09395132912287625 1.40625 0  1.864428922933186 2.097152368249048 0  1.075790964199689 0.9639927685251957 0  1.577647454334931 1.364983118044755 0  1.628153344277988 2.404788350306467 0  1.167077918760056 1.058552924814679 0  1.074739275689835 1.681406025969635 0  1.148987566563863 0.8222984211808768 0  1.306654321632048 1.041166548652151 0  0.9081130845912743 0.4320037560380569 0  1.737437621288794 1.559740937438288 0  1.383346867833016 0.7387963733691006 0  1.375 0 0  0.8103372716496738 0.2459264405828014 0  0.3210031681523711 1.2276684776974 0  0.3413174941012037 1.032568939725027 0  1.736806510857051 2.085914365958977 0  1.681325946641243 0.7465125094501177 0  1.876398417646562 0.1344843882356253 0  1.358990329084177 1.218033987372085 0  1.495613030057731 1.915663152891221 0  1.895663085261757 0.8297047254494576 0  0.6211324108585357 0.569808241175043 0  1.11972651515424 0.6140269112896967 0  1.183436751467553 0.377915048179126 0  1.030338608984736 0.3934222752119882 0  0.7763722399334972 2.085428896480006 0  0.9995343277854785 0.1813115376207536 0  1.375 3 0  0.875 0 0  1.625 0 0  1.125 0 0  0.625 3 0  0.375 0 0  0.375 3 0  1.125 3 0  0.7043160420037512 2.750032606584533 0  1.300621845436222 1.781043998964619 0  0.1197771551622881 2.868065229891808 0  1.709085611581005 2.310552442506958 0  0.90539088267281 1.16540809825354 0  1.689559846240368 1.003240252671143 0  1.893127565596496 2.499519646159833 0  2 0.28125 0  1.673576840463066 0.2634794911438599 0  0.2909513983845114 0.4715422116238709 0  0.8306437486451163 0.9071799064847175 0  0 2.15625 0  2 0.65625 0  1.647615107768551 2.170843453709399 0  0.1234053348441461 2.65967874202093 0  0.3045785620803027 2.701846039693036 0  0.2418977276602471 2.877763189539751 0  0.6645594122709834 0.3884004847932273 0  1.173565072488407 2.356569317260697 0  1.72214809056434 1.808050877895925 0  0.7333281117019459 0.669002473049245 0  1.225238049542525 2.5368112091
[...]
<PointData  Scalars="f_1330"> 
<DataArray  type="Float64"  Name="f_1330"  format="ascii">0.0000000000000000e+00  0.0000000000000000e+00  0.0000000000000000e+00  0.0000000000000000e+00  0.0000000000000000e+00  0.0000000000000000e+00  0.0000000000000000e+00  0.0000000000000000e+00  -2.0605170748169246e+00  -1.8214603993705629e+00  0.0000000000000000e+00  0.0000000000000000e+00  0.0000000000000000e+00  0.0000000000000000e+00  -1.6149491879237587e+00  0.0000000000000000e+00  0.0000000000000000e+00  0.0000000000000000e+00  0.0000000000000000e+00  -1.2463871201449102e+00  -1.1699842517746222e+00  -1.2600190025376614e+00  -1.3380948507097894e+00  -1.7761249861233566e+00  -9.2313147475832913e-01  0.0000000000000000e+00  0.0000000000000000e+00  -2.1975933251002195e+00  0.0000000000000000e+00  0.0000000000000000e+00  -1.5647219998193254e+00  0.0000000000000000e+00  -1.1689547511328628e+00  -9.7355693996065795e-01  -9.8465373600853523e-01  -9.9700718076529060e-01  -5.7701726604947701e-01  -1.3203760966775613e+00  0.0000000000000000e+00  0.0000000000000000e+00  0.0000000000000000e+00  -5.2081303644493759e-01  -6.6518718326983584e-01  -2.0085680779732797e+00  -1.7133962671497933e+00  -1.0560767312575698e+00  -1.0844395770598700e+00  -2.0195168844525409e+00  -1.6173277539688606e+00  -6.2753712944117257e-01  -9.0359259278650983e-01  0.0000000000000000e+00  0.0000000000000000e+00  -6.9937047149850839e-01  -5.3476801097121007e-01  -1.5748495042070481e+00  -8.0492082487447381e-01  -1.6939291807479397e+00  -2.1471514331547441e+00  -3.9178140059822392e-01  -6.2408884653064478e-01  -6.5141588035842135e-01  -1.6084172605886926e+00  -7.7225210764265240e-01  -1.9458777501555176e+00  -4.3812851539591297e-01  0.0000000000000000e+00  -5.9293075569271814e-01  -8.5781415302457287e-01  -5.0250028826894766e-01  -1.3855134757245253e+00  -6.8396056304314434e-01  -4.2331352653173498e-01  0.0000000000000000e+00  -1.7708964288865490e+00  -2.0685190940791527e+00  0.0000000000000000e+00  0.0000000000000000e+00  0.0000000000000000e+00  0.0000000000000000e+00  -1.1706152795915719e+00  -1.2387668757287551e+00  -1.8504626157739650e+00  -7.8854628503003377e-01  -2.3168048308592068e-01  -2.0480725930124968e-01  0.0000000000000000e+00  -1.6324781746884029e+00  -1.2999669614460929e+00  -1.9546878199873514e+00  0.0000000000000000e+00  -6.7534083624955332e-01  -6.8240545552281140e-01  0.0000000000000000e+00  -8.9765913130477526e-01  -7.9073313165011894e-01  -4.7119845313030573e-01  -2.1367861960476291e+00  -2.1734672634929582e+00  -1.2375263646200430e+00  -1.5665599351026065e+00  -1.9591255537892935e-01  0.0000000000000000e+00  -1.3081519237862682e+00  -1.3354800558381561e+00  -1.1667501927709256e+00  -1.2338850049248116e+00  -5.2991815167606149e-01  -1.3659201638959837e+00  -1.3540833286983847e+00  -1.7972221893344817e+00  -1.2956184435281970e+00  -5.3659002066178552e-01  -7.1397102177880079e-01  -1.5772180886166469e+00  -1.6189079930772137e+00  -1.8653947203057073e+00  -8.0544282565316105e-01  -2.7160152169605561e-01  0.0000000000000000e+00  -1.0268488778864482e+00  -1.2753175346218293e+00  -7.1096852388695986e-01  0.0000000000000000e+00  -1.9827378245760159e+00  -2.6650665807981738e-01  -7.7644370299089727e-01  0.0000000000000000e+00  0.0000000000000000e+00  0.0000000000000000e+00  0.0000000000000000e+00  0.0000000000000000e+00  0.0000000000000000e+00  0.0000000000000000e+00  0.0000000000000000e+00  0.0000000000000000e+00  0.0000000000000000e+00  -3.5756346211589246e-01  -1.5046192890376704e+00  -1.5305633715693610e+00  -1.3581282257405702e+00  -3.6095624486655942e-01  -3.7628614485170014e-01  -9.9951392065031108e-01  -3.2955630827675503e-01  -2.1695441887635716e+00  -1.7569259814438569e+00  -2.2610470076403089e-01  -3.6405278100829719e-01  -8.3136928821585832e-01  -9.9447252743645131e-01  -8.3084237707602937e-01  -1.9290503983088148e+00  -1.8211234629374662e+00  -1.9514472695845246e+00  -1.9743132931028882e+00  -1.2871392041410770e+00  -5.9183463428673888e-01  -3.2086916209734978e-01  -2.1408487800357836e+00  -3.2828212699669379e-01  -5.3563469475858050e-01  -1.9311877592873321e+00  -1.8500267777427462e+00  -1.5437368742759514e+00  -3.8143299144660114e-01  -9.1615564534747318e-01  -1.7251279600752130e+00  -6.3876121154496079e-01  -6.4483062855172513e-01  -1.0168042314553092e+00  -1.5419986604455465e+00  -1.2583146467349284e+00  -1.7854137588938443e-01  -1.3090273339193372e+00  -2.2050886884382308e+00  -2.1169383101960118e+00  0.0000000000000000e+00  0.0000000000000000e+00  0.0000000000000000e+00  -5.6412427819345901e-01  -1.6206830420055431e+00  -2.0633996417409932e+00  -9.3827362352755417e-01  -7.5014561395022517e-01  -1.0384643761170602e+00  -9.1229014494582283e-01  -4.3146260689037097e-01  0.0000000000000000e+00  -3.1197530401249968e-01  -1.6948325935597860e-01  -9.2275131611893946e-01  -5.7233062781291832e-01  -3.7719790713891704e-01  -5.1664039588117672e-01  -4.7960706964114314e-01  -7.0079176430139301e-01  0.0000000000000000e+00  -2.0301979902801426e+00  -1.4109115089479403e+00  -3.7241501399835752e-01  -1.2919534276223721e+00  -5.3665424228287006e-01  -6.1199615136873298e-01  -8.1669139913993249e-01  -1.0018936490678998e+00  -3.9309512108355338e-01  -1.2630261205915585e+00  -1.5439688965126404e+00  -2.1342204066221129e+00  -2.0203628215415188e+00  -3.6749672119657273e-01  -3.4436470195522945e-01  -5.5736031604401082e-01  -3.7399858359744020e-01  -3.6291969149522091e-01  -1.7957124740092349e+00  -2.1281123096529928e+00  -2.0118492063127054e+00  -2.9541557981737993e-01  -1.4584844710320297e+00  -3.7011953359169292e-01  -2.8218328063021875e-01  -1.0674872366917356e+00  -4.5682222611119644e-01  -2.5995066090841118e-01  -8.4637367155880905e-01  -1.3065403795309423e+00  -7.1033273026337362e-01  -1.9074757964486930e-01  -2.5629274786333933e-01  -3.2728299894609592e-01  -1.6139446324698197e+00  -1.2566706957209872e+00  -1.1538311105159140e+00  -3.3259407380954159e-01  -1.7648833213459525e+00  -1.0539673568181755e+00  -1.3351313188381381e-01  0.0000000000000000e+00  0.0000000000000000e+00  -1.0066440645095593e+00  -3.5571405418964008e-01  -1.8743680922723549e-01  -6.9928823273147989e-01  -3.5389171255197183e-01  -4.6445558352404892e-01  -1.9106676781647585e+00  -1.4048517510100245e+00  -8.3223980789951935e-01  -1.9443789434392618e+00  -2.1672768237439368e+00  -1.6924602499089070e+00  -1.7727681752211999e+00  -1.0965878431540192e+00  -9.6609799384213746e-01  -1.3536185706873549e+00  0.0000000000000000e+00  -6.4468299705151655e-01  -1.0874253061724564e+00  -1.0546496280037465e+00  -8.5443930546951019e-01  -8.7540887703687553e-01  -8.2776716339433606e-02  -1.8198137975631732e+00  -1.4930029541683247e+00  -3.4373753690625658e-01  -1.1625309349029200e+00  -1.4104312553910143e+00  -9.2317259913515370e-01  -1.0068978488258959e+00  -1.8176093668604290e+00  -4.9365362168314325e-01  0.0000000000000000e+00  0.0000000000000000e+00  0.0000000000000000e+00  0.0000000000000000e+00  0.0000000000000000e+00  0.0000000000000000e+00  0.0000000000000000e+00  0.0000000000000000e+00  -6.1596224600698823e-01  -1.9106781247823033e+00  -6.9103945708129763e-02  -7.6960999292660504e-01  -2.1148367282478948e+00  -1.0239593627740586e+00  -2.4081960685167858e-01  0.0000000000000000e+00  -3.7536027510436637e-01  -5.3293162939764416e-01  -1.8498681423065542e+00  0.0000000000000000e+00  0.0000000000000000e+00  -1.0119312952812505e+00  -1.7598515291529865e-01  -3.7447505918756896e-01  -1.2702828050499934e-01  -8.9151486140435465e-01  -1.4274462796915190e+00  -9.9379501167697393e-01  -1.4453908852493538e+00  -1.0732301491494391e+00  -1.1051651459663951e+00  -1.3175024357446348e+00  -2.4633863431646136e-01  -1.6305015756776366e+00  -1.7612182508411802e+00  -9.7094792604670843e-01  -1.4728356736874057e-01  -4.3962654892597625e-01  -1.4490395623075776e+00  -1.1053282792836101e+00  -2.0656746209946832e+00  0.0000000000000000e+00  -9.3448511222653644e-02  -1.6606425041715143e+00  -7.2893046185987642e-01  -1.0286718536817931e+00  -7.9565906542475237e-02  -2.2770071558387847e-01  -3.9455961442191234e-01  -5.9420727486092284e-01  -6.6865033066790303e-01  -1.7763069416651123e+00  -1.6086523281558731e+00  -1.3807150055294781e+00  -1.0116477511975073e+00  -1.7255566194775969e+00  0.0000000000000000e+00  -1.9320400386753303e+00  -1.4826033813099011e+00  -1.0217603375214102e+00  -1.5572786733445299e+00  -1.2344165014274076e+00  -1.3074684274015447e-01  0.0000000000000000e+00  -2.0643172837952699e+00  -1.6262426879342673e+00  -7.7789547996288433e-01  -2.2007213859384720e+00  -1.7076721085895910e-01  -3.3183024217642065e-01  -2.1792339362081337e+00  -2.1368426395690685e+00  -1.7471807052495347e+00  -2.3131801784549258e-01  -2.4270140679130420e-01  -7.3273040032356362e-01  -3.8328360532243233e-01  -1.7799718333541947e-01  -3.1062621709528437e-01  -1.6127727360738431e+00  -8.8195468332983029e-02  -3.4709289658410580e-01  -2.0746913536681295e+00  0.0000000000000000e+00  -4.0813952429574168e-01  -1.2141615566216635e+00  -1.5525957777444257e+00  -1.6881280167336818e+00  -1.4287023135857571e+00  -1.5617943518338910e+00  -1.7226332383292899e+00  -1.2978660443846441e+00  -1.5456383864586569e+00  -1.0268194563506039e+00  -6.6126190669136775e-01  -1.1454677947211829e+00  -1.2585977224943585e+00  -2.0594508042072954e+00  -7.0555343546782756e-01  -1.4088813286646764e+00  -1.2507883240894428e+00  -1.1050594547374180e+00  -7.3625683936502673e-01  -1.8006480244046286e+00  -2.0945656040194107e+00  -2.1342072495208075e+00  -1.9188772009304598e+00  -1.0066490022606780e+00  -8.0638160282711269e-01  -9.8517078799433777e-01  -6.8884925524345364e-01  -9.8317392797469802e-02  -1.4492578065513171e+00  -1.3842685715245524e+00  -1.7357398603389858e+00  -1.1905820703467083e+00  -7.7876586262307790e-01  -2.1934650289228164e+00  -1.8520604798765292e-01  -4.3589606021064198e-01  0.0000000000000000e+00  -1.6502671259422244e+00  -1.1860819600356480e+00  -1.1700696910046366e+00  -1.9688135880458726e+00  -1.2679643217060739e+00  -1.4218897217004203e+00  -1.3112648141111849e+00  -8.1107370708642068e-01  -1.8378363526099799e+00  -1.7953578255856892e+00  -1.9329956932295220e-01  -5.6062992779135701e-01  -8.5613991808570455e-01  -2.9469248982993274e-01  -2.5831761931095903e-01  -1.6315058172254211e+00  -1.9808669799375584e+00  -1.5353824965500624e+00  -1.3402997915591928e+00  -9.2961495114772708e-01  -1.3504637272071365e+00  -1.3412082351473329e+00  -1.9709946144343253e+00  -7.7256733151930301e-01  -5.6937223652418800e-01  -4.9326987052609406e-01  -1.2471409841945655e+00  -1.4540559089568306e-01  -1.2236735446085305e+00  -1.4930137277288584e+00  -1.5800204287443842e+00  -7.0094972156729751e-01  -1.8204787651587588e+00  -3.8772990563658549e-01  -1.2475940517821684e+00  -4.8981027457953685e-01  -1.6013898701946951e+00  -4.2086079523004449e-01  -5.1227108710159353e-01  -6.3416888776736502e-01  -1.3259557857801694e+00  -2.1304391502424798e+00  -4.4550066652318504e-01  -1.7750245394366979e-01  -2.5994836210159533e-01  -6.4519787812642859e-01  -6.0308785876084692e-01  -2.9831871244976221e-01  -3.5363929475023514e-01  -3.4939185480916191e-01  -6.9705751194158028e-01  -2.1270703345692646e-01  -2.5771222195559973e-01  -4.3968726217811549e-01  -3.2746041176955704e-01  -2.0975748169433997e-01  -9.2367769638174269e-01  -1.5994892175716935e-01  -1.7049649686825112e+00  -1.6769810272267438e+00  -8.0681148112928591e-01  -3.4760203125826522e-01  -1.7046364252567050e+00  -6.9304790580468156e-01  -2.0303970117206114e+00  -1.2023670009259828e+00  -7.0674208877490735e-02  -4.4158821496124190e-01  -8.8095870135657162e-01  -3.6568476338022807e-02  -3.2662854193335866e-01  -3.6793004278919378e-01  -1.2602113619581021e+00  -3.5466103915193758e-01  0.0000000000000000e+00  0.0000000000000000e+00  0.0000000000000000e+00  0.0000000000000000e+00  0.0000000000000000e+00  0.0000000000000000e+00  0.0000000000000000e+00  0.0000000000000000e+00  0.0000000000000000e+00  0.0000000000000000e+00  0.0000000000000000e+00  0.0000000000000000e+00  0.0000000000000000e+00  0.0000000000000000e+00  0.0000000000000000e+00  0.0000000000000000e+00  0.0000000000000000e+00  0.0000000000000000e+00  0.0000000000000000e+00  0.0000000000000000e+00  0.0000000000000000e+00  0.0000000000000000e+00  0.0000000000000000e+00  0.0000000000000000e+00  -3.2158181453288598e-01  -1.6044734342166851e+00  -2.5500200235743176e-01  -2.0434833553484029e+00  -1.5676177309767678e+00  -1.8784027934655856e+00  -1.0776027874828848e+00  -6.4720811656353305e-01  -1.1501174697810734e+00  -1.1333490391093006e+00  -8.4236608797065038e-01  -1.0599920442620112e+00  -5.1259452259720850e-01  -2.1867075727630567e+00  -1.7427641447316322e+00  -1.2442789784480630e+00  -3.1025322731087235e-01  -7.6671230642913679e-01  -2.4913379716400258e-01  -1.7765346342347210e-01  -4.8428985669449609e-01  -1.0793325962556761e+00  -6.6058283678088670e-01  -9.0683422896811483e-01  -1.8542731068276419e+00  -2.0492200667374720e+00  -1.9333272838008781e+00  -1.6180407942294164e+00  -1.8558701650337481e-01  -1.8125158931531607e-01  -5.9892007353886467e-01  -8.2380371840651823e-01  -7.0195354910585861e-01  -7.5324936000207143e-01  -1.7767424534198886e+00  -2.0953236978499468e+00  -8.0677911453331941e-01  -1.0986754552395097e+00  -7.9064229246903839e-01  -2.1756741709560736e+00  -2.1340918027328293e+00  -1.4479814059155489e+00  -1.0715008376932578e+00  -4.7072285105294259e-01  -1.0606555830834110e+00  -1.6394674174218887e-01  -1.5985246735453837e-01  -5.3533440329106763e-01  -8.7413697199288445e-02  -9.4569476775647282e-02  -9.6035981498569886e-02  -1.4883359136370036e+00  -1.4048123776027768e-01  -1.0644937675701291e+00  -1.2014860070171711e+00  -1.6285886517333539e-01  -4.5510288248887387e-01  -4.0937018803363195e-01  -1.0019130463429535e+00  -5.5809603810794994e-01  -1.0547421168659696e+00  -2.1948959084220308e+00  -2.0664631808699667e+00  -1.9219867698874900e+00  -1.4308618230258063e+00  -1.9575884757546225e+00  -4.3953682769835578e-01  -1.9599867552822342e-01  -3.7123584070432891e-01  -6.0139023077323349e-02  -1.4904968335579145e+00  -2.6826773693627226e-01  -2.4191839198250667e-01  -1.8588322907741139e+00  -1.9904096417995503e+00  -1.8706339590346137e+00  -2.0526465650967580e+00  -1.3920924844712184e+00  0.0000000000000000e+00  -4.5181549332495674e-01  -7.8857395502515548e-01  -8.3868661900370023e-01  -1.1129043882229579e+00  -1.0923468647184980e+00  -1.9248377882589709e+00  -4.9419818509518648e-01  -1.8114054334153558e+00  -3.8081316049700958e-01  -1.5429309670078555e+00  -1.9492002852567984e+00  -1.9086447341995165e+00  -1.3572790938865670e-01  -8.3062525936672726e-01  -5.6923878268319650e-01  -1.5996195400719142e+00  -1.3931248351000496e+00  -1.5527391881064747e+00  -5.2429873602811282e-02  -1.9886742668251339e-01  -1.0622548116590009e+00  -1.0717498289376008e+00  -7.7662134056916310e-01  -9.1075518482949014e-01  -1.0662262186524494e+00  -2.5197320902200593e-01  -1.8554681025671920e+00  -1.4696731666798124e+00  -1.1458721847933533e+00  -2.3091477890512302e-01  -7.7779345702880909e-01  -1.4375580142464857e+00  -5.1564938420447992e-01  -2.9561167652144732e-01  -4.8471994269544899e-01  -4.7083133431655710e-01  -7.7779505318488351e-01  -1.7991816041934241e+00  -1.8556466377391495e-01  -3.0067732634264432e-01  -8.3488005589425451e-01  -7.5023815603102684e-01  -1.9516757263474755e+00  -8.0842574879966944e-01  -5.9323250935757132e-01  -3.8194589295587229e-02  -1.3096600773316161e-01  -1.1363942748521256e+00  -1.3856472965525146e+00  -1.9260774633251019e+00  -1.9339072229292293e+00  -6.8836737713762164e-01  -6.9014562106300381e-01  -5.5950230454345407e-01  -5.2526453948310781e-01  -3.1669429374218050e-01  -2.3595508297767981e-01  -7.6567856745077004e-02  -1.8787091642568665e-01  -2.2038989091381427e+00  -4.0029221929617315e-01  -5.2042351244131280e-01  -4.5454716644169790e-01  -1.5475766664167441e+00  -8.6203259828339951e-01  0.0000000000000000e+00  -1.5912506485346467e+00  -1.1329947055864626e+00  -9.2828706397951444e-01  -2.0127324034679641e+00  -8.9909864892865521e-01  -1.4687203049788469e+00  -1.5132749528213350e+00  -1.7877707669122140e+00  -1.8042537558718592e+00  -1.7131327904641527e+00  -1.3847384959079452e+00  -2.0883770433892628e+00  -2.5183475457059146e-01  -1.4788858926438726e+00  -1.5436574005803312e+00  -2.1361494888172903e+00  -1.4164728384085643e+00  -1.0957200010071366e+00  -1.2616181976944503e+00  -1.6638995656288616e-01  -2.0011272643095106e+00  -1.8762821097881157e+00  -5.7208505227469597e-01  -1.0357804232657528e-01  -2.5362982264282008e-01  -3.0919867632771314e-01  -5.3433806802295258e-01  -6.3635292823713729e-01  -8.2977412825340058e-01  -1.1143305296157171e+00  -1.7999714591830072e+00  -4.5285663515593044e-01  -9.8520355650669889e-01  -2.1772172750596299e+00  -2.6530817299138466e-02  0.0000000000000000e+00  -9.3198094217798122e-01  0.0000000000000000e+00  -1.3179385250899067e-01  0.0000000000000000e+00  -6.5600225016013158e-01  -2.4485064628745293e-01  -1.5826460282825461e+00  -1.1312289238123387e+00  -1.9653962882438178e+00  -2.1309634910417863e+00  -2.0406093112244186e+00  -1.2650626513027727e+00  -1.2720386154686854e+00  -4.5990428602370692e-01  -5.9510524515930463e-01  -1.1483892744183606e+00  -6.9784262277219145e-01  -1.5744212545897383e+00  -7.5510243270954924e-01  -5.5020775167982083e-01  -8.2873685714185452e-01  -1.0107995229892779e+00  -2.1130798715800942e+00  -1.9983365641629660e+00  -1.0560303359889298e-01  -1.1924891359319267e+00  -2.6413761484415688e-01  -6.8706508168076019e-01  -8.7813940932199119e-01  -5.6444926996385614e-01  -6.3116738076481116e-01  -2.9249241775645007e-01  -1.9780643079985460e+00  -5.5664676721980966e-01  -9.2130026405793009e-01  -2.1338431469084687e+00  -7.6075598989079241e-01  -1.5921821969154426e-01  -1.5372677628416351e+00  -1.4275473388316049e+00  -6.6363115395365158e-01  -3.6055994857401663e-01  -5.6746700371975345e-01  -3.7898588704667707e-01  -1.5620762910683796e+00  -1.2958748447127928e+00  -8.2066549240763420e-01  -2.0036684295482599e+00  -2.1007941172746025e+00  -2.0231557223932442e-01  -9.6474769980538044e-01  -1.4433950116813741e+00  -5.7091444335934527e-01  -1.2941216664571868e+00  -1.1925227504760298e+00  -1.7282571316910407e+00  -1.8441365121779729e+00  -1.6906848386225997e+00  -9.9654274568551549e-01  -2.2076782761541902e+00  -2.1080307411016511e-01  -1.4541604229012206e+00  -1.7325745389127563e+00  -9.9311822130902694e-01  -3.3579990210153021e-01  -1.4434584820897247e+00  -1.5162242876176431e+00  -2.0426609089445655e+00  -1.8555816799872287e+00  -8.7810167922421867e-01  -6.9443501508067196e-01  -2.0666881624583926e+00  -2.1708552471793063e+00  -5.7696083440223012e-01  -3.9500849873961380e-01  -5.8357136574085498e-02  -3.6924061102799399e-01  -1.7243425424789272e+00  -2.0877157127864967e+00  -1.8396197359236157e+00  -2.4029997666789284e-02  -7.4123428206708786e-01  -5.1254299680946125e-01  -4.8668291885874376e-01  -1.6884499399637437e-01  -3.6963022881395752e-01  -5.2404934530184388e-01  -5.6134416422945765e-01  -9.2818411449561311e-01  -1.8852957003869748e+00  -1.4658339663866937e+00  -2.0627146344669955e+00  -8.6295051382649701e-01  -4.6201716005855198e-01  -1.0769916463911862e+00  -1.6710393515700461e+00  -6.9301401372208338e-01  -5.8867722376488540e-01  -1.2256242179477195e+00  -2.6621946919700140e-01  -6.9340764005015487e-01  -1.7364940824655895e+00  -1.8898939123462919e+00  -1.8789514464071513e+00  -1.9210809196813422e-01  -1.6839668952869410e-01  -7.2501283169424502e-01  -1.5541113371759310e+00  -1.3647147054391247e+00  -1.3876011641032391e+00  -1.6782661189386834e+00  -5.6253076716458295e-01  -5.2869453929344445e-01  -1.3661901473837501e+00  -7.8253060053462808e-01  -1.5107862707965896e+00  -1.7069858661590429e+00  -8.7718522311067670e-01  -1.1650427830504690e+00  -1.1369651700428685e+00  -1.3398727706869693e+00  -1.7523268721238902e-01  -1.8186751580901553e-01  -4.2077670657106342e-01  -5.7780315087873335e-01  -1.9084072332825630e-01  -1.7242190419111960e+00  -1.714689831