<?xml version="1.0"?>
<VTKFile type="UnstructuredGrid"  version="0.1"  >
<UnstructuredGrid>
<Piece  NumberOfPoints="14566" NumberOfCells="28705">
<Points>
<DataArray  type="Float64"  NumberOfComponents="3"  format="ascii">0 3 0  0 0 0  2 0 0  2 3 0  2 1.5 0  0 1.5 0  1 0 0  1 3 0  1 1.083333333333333 0  1.1875 2.041666666666667 0  0 2.25 0  2 0.75 0  0 0.75 0  2 2.25 0  0.546235380116959 1.875 0  0.5 0 0  0.5 3 0  1.5 3 0  1.5 0 0  0.75 0.5416666666666666 0  1.397727272727273 0.6098484848484849 0  0.7400140009560829 2.446414029671393 0  0.4305555555555555 1.125 0  1.413194444444444 1.5 0  1.511633211678832 2.466088807785888 0  2 1.125 0  2 1.875 0  0.9531937950269089 1.626186072001953 0  0 0.375 0  0 2.625 0  1.446040104181028 1.054219142057518 0  2 0.375 0  1.613091388971457 2.052622604569185 0  0.3978050788698214 0.7279316172646906 0  1.122034767567557 2.604844747138268 0  0.3976808956026018 2.243942213143948 0  0.4013368467572315 2.628399882254177 0  0.3915890028118316 1.51493140652058 0  0 1.125 0  0 1.875 0  2 2.625 0  0.3745170793253871 0.3535227724338494 0  1.25 0.271574440052701 0  0.7159977215410738 1.350437455814274 0  0.7085197291365257 0.8893370480908342 0  1.706597222222222 1.6875 0  1.696549685796197 1.296777466148165 0  0.8698085846740859 1.947017983326575 0  1.057825596389426 0.7281189555125724 0  1.726188774537831 0.5625 0  1.710431770995195 0.8791872695688975 0  1.75 0 0  1.75 3 0  0.8440250195969674 2.735409186889472 0  1.557361044457889 0.3036611226867964 0  1.021382495358583 2.307750712964459 0  0.9438037150343664 0.3025888941184255 0  1.422209083254015 1.809204266327822 0  1.1296651354649 1.367957652701011 0  1.705681205609129 2.699620803739419 0  0.6535540818054447 0.2653941918737499 0  0.2152777777777777 0.9428714285802794 0  0.6764082332685148 2.163317662154022 0  0.2152777777777777 1.300399603586393 0  0.6738797158697101 1.626558021437488 0  0.2022665791879026 2.438046698110248 0  0.25 3 0  1.38627383238228 2.730439726544761 0  0.2731176900584795 1.979408052870387 0  1.788988139129612 2.433013002880604 0  1.395884399116 2.218504617781978 0  0.1889297394923665 1.6875 0  0.1980492074855439 0.5524276374026066 0  0.25 0 0  1.21434773979559 0.9359132279393747 0  1.162660410385986 1.781867069461707 0  1.25 3 0  0.75 0 0  1.25 0 0  0.75 3 0  1.116873502935106 0.4842556563055509 0  1.277400787068369 2.424746368423087 0  0.6657421642148181 1.120641644021926 0  0.6306361732889977 2.648994399124817 0  1.794501480514241 0.241165679657173 0  0.1995152701183739 2.762823153254418 0  0 0.1875 0  1.470025947155241 1.280086929735272 0  1.484570527100927 0.8252183799387092 0  1.242989691626331 1.165848469786021 0  2 2.0625 0  1.778024971434719 2.207218987747306 0  1.808812959484196 1.96875 0  2 2.8125 0  0.5594399178162468 0.4532199053554985 0  1.780142342986769 1.09053052213301 0  1.125 2.822181958293781 0  1.15437464724632 1.574257741882416 0  0.9258053099401093 1.28898157144858 0  0.9414800874564364 2.500417763956405 0  1.411666711023481 2.014022948820662 0  0.2133789240500979 0.2115885654001305 0  2 0.9375 0  0.3965527976610288 1.72604344321965 0  0.608995122443001 0.7011531686631721 0  0.4138123102177461 0.9264961621055305 0  0.5749863647331368 2.334798630725083 0  0.1987198992492864 2.239057349078047 0  0.4984282205902797 2.070129278380434 0  0.4102452351893879 1.319883055253778 0  0.8831982801865097 2.153602641944079 0  1.623548628757152 1.494145162716432 0  0.2033775143403518 0.7477945287866119 0  0.1940536105539605 1.49340186742834 0  1.202090490568975 2.235671565210217 0  0.8466070242559173 0.7295024517030759 0  0.9532944875716811 0.8934161868796685 0  0.3945591291744741 2.436218116639167 0  0.390119492358766 2.83027622360013 0  0 2.0625 0  1.588911207098181 2.279111216118611 0  1.611152302833269 1.857591555864952 0  1.812477793912983 1.451840609478801 0  2 1.3125 0  0.7299720177885035 1.812388578202914 0  0.3990727621832508 0.1632073431396914 0  0.3931607960443144 0.5402918167664157 0  0 2.8125 0  0 1.6875 0  2 2.4375 0  0 2.4375 0  0 1.3125 0  0 0.5625 0  0 0.9375 0  2 0.5625 0  2 1.6875 0  2 0.1875 0  0.625 2.846709428529378 0  1.253682590775686 0.7434363360896369 0  1.523086796648675 1.651807599666824 0  0.9411304688418869 0.5621263133613359 0  1.125 0.1357872200263505 0  1.41562649854122 0.1731862647719977 0  1.300240745075605 0.4510277883928345 0  1.555879490833153 2.817654319666713 0  0.863104561805179 1.463788789510293 0  0.572634432547554 1.469842074183063 0  1.642240545166245 0.1445731778058382 0  0.875 0.1332980020323718 0  0.2487211794256408 1.121635516083336 0  1.573217117267048 0.6642797787692021 0  1.532509884912857 0.4854117220234143 0  1.318319980339258 1.657499541059452 0  0.6967186728143467 1.986865355086986 0  1.301817177279576 1.331659278786805 0  0.8248882106199859 1.030466229808272 0  1.605750972809839 1.139912728256475 0  1.843199325955406 1.797053511030686 0  0.2063238460867002 0.3820355271287071 0  0.9827851948228239 1.80512896198594 0  1.826970058610837 0.415996684272712 0  1.815548982041781 0.725681816908465 0  1.014647505823572 2.041356564123892 0  1.284408782125187 1.904792104550927 0  0.8525918307249374 2.320050269794524 0  0.2372387727050605 2.600742842596934 0  1.373827344559335 2.562638247702516 0  0.5704448974488513 1.261876095074753 0  1.538823098639072 2.640881839270544 0  1.660201480254432 2.532489581187561 0  0.587112621207044 2.494677032146202 0  0.5461561799319455 1.015291367624069 0  1.572288330999834 0.9577191413849884 0  1.867150148288836 2.71875 0  1.091315479755366 2.44965514014893 0  1.024103073242107 1.485231137654558 0  1.091268073330427 1.213602378001351 0  1.875 0 0  1.875 3 0  0.125 3 0  1.85164596646159 1.239574888136519 0  0.5144737921873372 1.618478755254639 0  0.789902825397775 1.213881397553005 0  0.7871809298881783 0.3737161797805977 0  1.096901857517183 0.2870816670855633 0  0.8110918697082464 2.584047356465716 0  0.9744132373451575 2.651779594380161 0  0.9648544366790877 2.842449488677214 0  0.625 0 0  0.5537257935489299 0.1460342872932163 0  1.7705015452388 2.843516086018942 0  0.2713847131997923 1.821813683845335 0  1.671841286637515 0.4171978006585984 0  1.280104727509329 2.845993023801107 0  0.5072888412610886 2.735536974420782 0  1.875977913857691 1.59375 0  1.401867863809804 0.3303526277085793 0  0.125 0 0  1.087945285896537 1.911207589900836 0  0.5539485640670052 0.8506752587845635 0  1.802031380552774 2.583004008860892 0  1.247745080385359 0.5925801107113228 0  1.846532469172136 0.9514635756358938 0  0.5153558527085855 0.3136387920935104 0  1.259950669466945 2.655447264867863 0  0.3543785282176074 2.102738236554382 0  0.1206765555899243 1.96875 0  0.4171673824311519 1.94679909469644 0  1.341725400962083 0.8616865987507794 0  0.854245297200512 1.73446714966294 0  1.266296445207783 1.476175406081331 0  0.7308144723714898 0.1432494811275388 0  0.1053667300439123 1.03125 0  0.1883996934132187 2.095616965421765 0  0.768270499960176 2.857490829759849 0  1.872206565425325 2.315809268737681 0  0.605673697931064 1.748526679480376 0  0.8134983007371885 1.597494620919787 0  0.7117096079616703 1.491055883497182 0  0.1027173614314198 0.84375 0  0.7128018016146636 2.308840771762036 0  0.1027094327320722 1.21875 0  1.421885244136567 2.869709256359061 0  0.3030107335519462 1.40771559083607 0  0.1294370239590212 1.816488826586231 0  0.1046314960532825 2.340260612134282 0  0.3066854642776671 0.8393938660272582 0  0.529850680728582 2.204447295200468 0  0.2974747181276535 2.338478572792295 0  0.100880635356019 2.53125 0  0.1038707739568649 0.6527523034992539 0  1.863094387268916 0.5487629667361756 0  1.290517272107038 2.131470167148579 0  1.52111741644401 2.157338416251437 0  1.464641663798353 2.337208835657457 0  1.281373773327221 0.1357872200263505 0  1.100886779012995 2.145731672614935 0  0.4928959427886405 0.6317006424650523 0  0.1060944877986065 0.2925173789259402 0  0.875 3 0  1.625 3 0  0.2831533857306817 1.592870651929527 0  0.09446486974618326 1.59375 0  0.1003055413557448 0.4622840038043601 0  0.3012082573901707 0.6364451147081118 0  0.09395132912287625 1.40625 0  1.864428922933186 2.097152368249048 0  1.075790964199689 0.9639927685251957 0  1.577647454334931 1.364983118044755 0  1.628153344277988 2.404788350306467 0  1.167077918760056 1.058552924814679 0  1.074739275689835 1.681406025969635 0  1.148987566563863 0.8222984211808768 0  1.306654321632048 1.041166548652151 0  0.9081130845912743 0.4320037560380569 0  1.737437621288794 1.559740937438288 0  1.383346867833016 0.7387963733691006 0  1.375 0 0  0.8103372716496738 0.2459264405828014 0  0.3210031681523711 1.2276684776974 0  0.3413174941012037 1.032568939725027 0  1.736806510857051 2.085914365958977 0  1.681325946641243 0.7465125094501177 0  1.876398417646562 0.1344843882356253 0  1.358990329084177 1.218033987372085 0  1.495613030057731 1.915663152891221 0  1.895663085261757 0.8297047254494576 0  0.6211324108585357 0.569808241175043 0  1.11972651515424 0.6140269112896967 0  1.183436751467553 0.377915048179126 0  1.030338608984736 0.3934222752119882 0  0.7763722399334972 2.085428896480006 0  0.9995343277854785 0.1813115376207536 0  1.375 3 0  0.875 0 0  1.625 0 0  1.125 0 0  0.625 3 0  0.375 0 0  0.375 3 0  1.125 3 0  0.7043160420037512 2.750032606584533 0  1.300621845436222 1.781043998964619 0  0.1197771551622881 2.868065229891808 0  1.709085611581005 2.310552442506958 0  0.90539088267281 1.16540809825354 0  1.689559846240368 1.003240252671143 0  1.893127565596496 2.499519646159833 0  2 0.28125 0  1.673576840463066 0.2634794911438599 0  0.2909513983845114 0.4715422116238709 0  0.8306437486451163 0.9071799064847175 0  0 2.15625 0  2 0.65625 0  1.647615107768551 2.170843453709399 0  0.1234053348441461 2.65967874202093 0  0.3045785620803027 2.701846039693036 0  0.2418977276602471 2.877763189539751 0  0.6645594122709834 0.3884004847932273 0  1.173565072488407 2.356569317260697 0  1.72214809056434 1.808050877895925 0  0.7333281117019459 0.669002473049245 0  1.225238049542525 2.5368112091
[...]
<PointData  Scalars="f_1330"> 
<DataArray  type="Float64"  Name="f_1330"  format="ascii">0.0000000000000000e+00  0.0000000000000000e+00  0.0000000000000000e+00  0.0000000000000000e+00  0.0000000000000000e+00  0.0000000000000000e+00  0.0000000000000000e+00  0.0000000000000000e+00  2.0840187268574555e+00  1.9232661469023118e+00  0.0000000000000000e+00  0.0000000000000000e+00  0.0000000000000000e+00  0.0000000000000000e+00  1.5961154054900817e+00  0.0000000000000000e+00  0.0000000000000000e+00  0.0000000000000000e+00  0.0000000000000000e+00  1.2103643454127317e+00  1.1963713210345552e+00  1.2242415358073362e+00  1.3476838178348514e+00  1.8613898785785015e+00  9.0770163508588331e-01  0.0000000000000000e+00  0.0000000000000000e+00  2.2543674884615683e+00  0.0000000000000000e+00  0.0000000000000000e+00  1.5893618176281203e+00  0.0000000000000000e+00  1.0935235939870662e+00  9.8764792577564298e-01  1.0109486076469885e+00  1.0143922643157115e+00  5.7590677735062312e-01  1.3663236833431505e+00  0.0000000000000000e+00  0.0000000000000000e+00  0.0000000000000000e+00  5.2383356797774927e-01  6.8655139369048090e-01  2.0089575354697855e+00  1.6616312178184014e+00  9.8014537079006669e-01  1.0077818847920712e+00  1.9949285758812985e+00  1.6654297787260208e+00  5.5814545824627493e-01  8.0052378780971889e-01  0.0000000000000000e+00  0.0000000000000000e+00  6.5952984016660732e-01  4.9789685639572606e-01  1.6055053653879365e+00  7.7986482367690191e-01  1.7335006487868412e+00  2.2635741228303545e+00  3.3016012098726755e-01  5.7799410436463061e-01  6.9912425213972462e-01  1.5616596736726269e+00  8.0794604336969300e-01  1.9490871666504501e+00  4.5903087857148533e-01  0.0000000000000000e+00  5.9774959542993544e-01  8.9721193832354385e-01  4.3894174972609468e-01  1.4352357294317934e+00  7.2140378318427001e-01  4.4467792632965236e-01  0.0000000000000000e+00  1.8752550446592311e+00  2.1638860412024252e+00  0.0000000000000000e+00  0.0000000000000000e+00  0.0000000000000000e+00  0.0000000000000000e+00  1.2077273850449870e+00  1.2889357113971391e+00  1.8014729111819898e+00  7.4049348806223791e-01  1.8490714087200644e-01  2.1934450613342782e-01  0.0000000000000000e+00  1.6601488374168691e+00  1.3085971943362575e+00  2.0481421293513846e+00  0.0000000000000000e+00  5.8442273315078175e-01  5.8769149894603867e-01  0.0000000000000000e+00  8.6842763864809525e-01  6.8982128528400366e-01  4.8117879979440420e-01  2.2703992224739591e+00  2.2020533632314567e+00  1.2283884256335098e+00  1.6115086310552449e+00  2.0874211284342797e-01  0.0000000000000000e+00  1.3301885427082323e+00  1.3077078405110691e+00  1.1864928322548947e+00  1.2136723339095150e+00  5.6778013559969354e-01  1.3630821405906124e+00  1.3807479160994671e+00  1.7845463721956962e+00  1.2622651283402504e+00  5.7221062269957379e-01  7.6121682605738938e-01  1.6680306027643856e+00  1.6024851160749889e+00  1.8750035815211747e+00  8.1023340279431222e-01  2.7198820508423982e-01  0.0000000000000000e+00  9.7897001945571860e-01  1.2050475668894021e+00  6.5290258615238927e-01  0.0000000000000000e+00  1.9449010588162159e+00  2.6601276950530078e-01  7.8123851773945707e-01  0.0000000000000000e+00  0.0000000000000000e+00  0.0000000000000000e+00  0.0000000000000000e+00  0.0000000000000000e+00  0.0000000000000000e+00  0.0000000000000000e+00  0.0000000000000000e+00  0.0000000000000000e+00  0.0000000000000000e+00  3.3110340121570725e-01  1.5873000636981878e+00  1.5401461794109201e+00  1.3568040728677733e+00  3.7098020476222104e-01  3.7659623032576400e-01  1.0356394715602575e+00  3.0574539764985259e-01  2.2189375294506282e+00  1.7851728404077276e+00  1.9577544163610014e-01  3.4406667102772109e-01  8.6684565622052001e-01  9.5618338464363228e-01  8.0457714600483266e-01  2.0269944547039551e+00  1.7635639659314857e+00  2.0520844518148418e+00  1.9364763535273910e+00  1.2190916542417487e+00  5.2374329212564175e-01  3.4185611617160927e-01  2.1671683774062682e+00  2.7201490178292820e-01  4.6474659499587490e-01  1.9651845395964491e+00  1.9360099894365190e+00  1.5305987638435179e+00  4.0101982404516912e-01  9.3618290683354299e-01  1.7187487893258402e+00  6.0604248764051816e-01  5.7928681494060597e-01  9.8619016703571949e-01  1.5201400410800452e+00  1.2059173827963878e+00  1.4105330821196901e-01  1.3468849326534977e+00  2.3021925012279914e+00  2.1906102783141694e+00  0.0000000000000000e+00  0.0000000000000000e+00  0.0000000000000000e+00  5.0294314900816117e-01  1.6476137695835122e+00  2.0416366550220206e+00  8.8836112809433720e-01  7.6007445541287166e-01  9.9418101598762620e-01  8.9555061905180122e-01  4.1935126067245315e-01  0.0000000000000000e+00  2.9474060527458545e-01  1.3491783721120892e-01  9.5371477721175146e-01  5.0487735107799347e-01  3.9101808558358980e-01  4.9563228909600276e-01  4.3767335807661772e-01  7.0580489296540494e-01  0.0000000000000000e+00  2.0956187490292275e+00  1.3933682887452168e+00  3.1013994724666161e-01  1.3473261801786072e+00  4.5712055763212217e-01  5.8820463449533911e-01  8.4506475275168191e-01  1.0348197233362000e+00  4.3097480250184256e-01  1.2762956193513058e+00  1.6217168677637954e+00  2.1397517852326997e+00  2.1548536789641681e+00  3.3788468425764429e-01  3.7823231317492761e-01  6.0633788487196227e-01  3.4543332898692647e-01  3.1505198388782785e-01  1.7798113059643950e+00  2.1578025788253714e+00  2.0307901847317731e+00  3.2927986285533545e-01  1.4231659766906248e+00  3.9718695056927916e-01  2.8333127543844250e-01  1.1096530943852643e+00  4.9062531337924220e-01  2.7885754562961451e-01  8.8552721631066567e-01  1.2972383852623237e+00  7.2747342939013604e-01  2.0805472609767339e-01  2.7468447044772054e-01  2.8219654041242132e-01  1.7077739174377644e+00  1.2426021414329360e+00  1.1622298162519771e+00  3.4599724150737782e-01  1.8439823047843045e+00  1.0479029125298902e+00  1.4800195639757355e-01  0.0000000000000000e+00  0.0000000000000000e+00  1.0488909190367846e+00  3.8376305882799078e-01  2.0448103427971920e-01  7.1412126070790816e-01  3.8173976315061620e-01  3.9391132610709806e-01  1.9751331956763054e+00  1.3853428487988058e+00  7.7683863894069149e-01  2.0374885169039874e+00  2.2540665151915782e+00  1.7857383391956216e+00  1.8554027910550484e+00  1.0712277156660437e+00  8.9891224886939203e-01  1.4016189519462496e+00  0.0000000000000000e+00  6.0319168491748143e-01  1.1133420003070480e+00  1.0835315463413071e+00  7.4748740548372228e-01  7.9335371892947981e-01  6.2596301686805925e-02  1.8857179745339407e+00  1.4884809569298216e+00  2.9017362709421940e-01  1.1316859974142908e+00  1.4613967116565620e+00  9.5619532803186047e-01  1.0085353339666536e+00  1.7717334626926420e+00  4.8483047849260358e-01  0.0000000000000000e+00  0.0000000000000000e+00  0.0000000000000000e+00  0.0000000000000000e+00  0.0000000000000000e+00  0.0000000000000000e+00  0.0000000000000000e+00  0.0000000000000000e+00  5.6877765078507614e-01  1.9949208507938052e+00  7.9064359109098328e-02  6.9177244169180763e-01  2.1112551519804854e+00  9.1871425725470279e-01  2.0309926350198473e-01  0.0000000000000000e+00  3.2113497950015657e-01  5.4955538436926821e-01  1.8176986836032720e+00  0.0000000000000000e+00  0.0000000000000000e+00  9.2939390399090605e-01  1.9402302272718910e-01  3.8531012454875568e-01  1.3784928802640356e-01  8.3912785107794452e-01  1.4909371580983706e+00  8.9818467569128346e-01  1.4129170762960468e+00  1.1187664561060564e+00  1.1293668499808083e+00  1.3650533977265391e+00  2.3667866412107108e-01  1.6125310062545051e+00  1.7064399095626399e+00  9.8603398362749972e-01  1.1670055111129914e-01  3.9839983781087424e-01  1.4718637240677359e+00  1.0429960540224676e+00  2.1709003050537352e+00  0.0000000000000000e+00  7.2027641072006848e-02  1.6264317380186990e+00  7.0518557360108503e-01  9.7820610404506236e-01  8.9682804309704267e-02  2.1544104961243116e-01  3.3767660608571359e-01  6.0653938164461574e-01  6.6338347072528203e-01  1.8507077420913460e+00  1.6279563903744629e+00  1.3408233541493482e+00  9.0561828274777023e-01  1.8140022004115259e+00  0.0000000000000000e+00  1.9044850955814361e+00  1.4669930193381642e+00  9.2563101899599987e-01  1.5144647467297498e+00  1.2523339024915252e+00  1.3839404655081000e-01  0.0000000000000000e+00  2.0776702382219523e+00  1.6504083532754013e+00  7.7210274196182527e-01  2.2629061601856630e+00  1.3527589216141203e-01  2.8142392005323852e-01  2.2482344505175784e+00  2.1602142603640315e+00  1.7754171041669444e+00  2.4149594962320847e-01  2.4405246892123850e-01  7.5314253922088925e-01  3.1792414522190476e-01  1.5088534423468694e-01  3.4554854055170620e-01  1.5795394715360018e+00  9.8411452498047461e-02  3.6048133977160690e-01  2.0516165983497108e+00  0.0000000000000000e+00  3.5107418347938391e-01  1.2096995344448709e+00  1.5804237152095253e+00  1.7389484509889266e+00  1.4124060158556140e+00  1.5705579078534488e+00  1.7398148515847598e+00  1.3339143653646235e+00  1.5492423508207134e+00  1.0585190347758913e+00  7.0238254515694398e-01  1.0861266632727664e+00  1.2133287242465312e+00  2.0565165979441837e+00  6.9391688320868206e-01  1.4227305188772792e+00  1.2240585881392463e+00  1.1110201804428146e+00  6.7802603367832670e-01  1.8576207661123938e+00  2.2093273750075775e+00  2.2743612108068993e+00  1.8969155221298895e+00  9.9696471476593995e-01  8.4318345923394133e-01  9.8781992531793461e-01  6.2351671667106257e-01  1.0870417920301018e-01  1.4917846488408855e+00  1.3683748724395686e+00  1.7898405690945443e+00  1.1938673166254152e+00  7.7036664507942265e-01  2.2944583127220053e+00  1.5048860542427128e-01  4.3284454659868726e-01  0.0000000000000000e+00  1.6030721315761247e+00  1.1972404126621339e+00  1.1843653404267791e+00  1.9213614271020647e+00  1.2352170532441535e+00  1.3894717551567954e+00  1.3191046290389472e+00  7.4100766793705375e-01  1.8415144316221099e+00  1.8763252703549158e+00  1.7484291492165971e-01  5.2302302863777339e-01  8.0182029102507724e-01  2.7665641426256149e-01  2.2107423369592363e-01  1.7325291639407185e+00  2.0752546539274412e+00  1.6093053537104267e+00  1.3938474835279624e+00  9.6779560292935429e-01  1.3656992551807914e+00  1.3817402772328597e+00  1.9871540915161368e+00  8.0069284682946051e-01  6.1666924200482942e-01  5.1613737375553925e-01  1.2217000827014364e+00  1.3253553857428371e-01  1.1461681937784087e+00  1.5726896833243302e+00  1.6466192876976642e+00  7.4377322163043724e-01  1.7812829674478894e+00  3.5308959994044031e-01  1.1805890879222922e+00  5.1362338190645218e-01  1.6414916276825502e+00  4.0272445994782219e-01  5.2263734850759269e-01  6.4828036628520147e-01  1.3497874196094135e+00  2.1616319912517121e+00  4.3891870746092065e-01  1.7264150119331112e-01  2.6674029003025573e-01  5.5457537800240930e-01  6.1970482160330187e-01  3.3155514502173444e-01  3.1447679775257470e-01  2.9502770524448207e-01  6.7230274800072365e-01  2.2785054066434129e-01  2.8221675024203857e-01  4.2987579201137027e-01  2.8407720546289850e-01  2.2494037308138773e-01  9.1352693415698349e-01  1.5864860571526371e-01  1.8091519472948998e+00  1.6760631044178862e+00  7.3918963677937777e-01  3.7224614373134651e-01  1.6691722928896018e+00  7.3706199154301300e-01  2.1608897813262398e+00  1.2001678904554924e+00  5.2931177928678040e-02  4.7332458025535129e-01  8.8731967905765063e-01  4.2708729674583008e-02  3.5398201679301255e-01  4.0806501566439507e-01  1.3141504990868100e+00  3.8447694125193127e-01  0.0000000000000000e+00  0.0000000000000000e+00  0.0000000000000000e+00  0.0000000000000000e+00  0.0000000000000000e+00  0.0000000000000000e+00  0.0000000000000000e+00  0.0000000000000000e+00  0.0000000000000000e+00  0.0000000000000000e+00  0.0000000000000000e+00  0.0000000000000000e+00  0.0000000000000000e+00  0.0000000000000000e+00  0.0000000000000000e+00  0.0000000000000000e+00  0.0000000000000000e+00  0.0000000000000000e+00  0.0000000000000000e+00  0.0000000000000000e+00  0.0000000000000000e+00  0.0000000000000000e+00  0.0000000000000000e+00  0.0000000000000000e+00  2.7839763812828094e-01  1.5627937876763733e+00  2.6298344426179998e-01  2.0118837405352119e+00  1.6081698673039531e+00  1.8963911586815891e+00  1.0326401266537886e+00  6.5202182797451014e-01  1.2000679965390593e+00  1.1711006664149211e+00  8.7120957150665779e-01  1.1072150239618157e+00  4.4978865958681408e-01  2.2422713877425635e+00  1.8015264317302400e+00  1.1711756007541694e+00  2.6945411431970329e-01  6.7134159158911799e-01  2.4804324739258074e-01  1.8440951955263069e-01  5.0015656515283968e-01  1.0768796234408109e+00  6.1601314383314554e-01  8.7349141701492528e-01  1.8013449857904240e+00  2.0371627143623039e+00  1.8807266181255378e+00  1.6868636856093544e+00  1.7703072090783536e-01  1.6658807846758766e-01  5.7116681696782245e-01  8.1536093685635935e-01  6.9785146824477229e-01  7.1306015929362854e-01  1.7650190447659515e+00  2.1212943306917276e+00  8.4039277912251908e-01  1.1238267075324897e+00  8.3187556578778055e-01  2.2074160805000989e+00  2.2008088903898977e+00  1.4260560447000026e+00  9.6985483070993095e-01  4.3153140724621636e-01  1.0929686496634952e+00  1.6937855275751754e-01  1.2965845739723111e-01  5.5223222918971915e-01  9.1312301799342493e-02  7.7466669225323845e-02  7.4040596306599621e-02  1.5178382394785790e+00  1.3954976245469061e-01  1.0919006938522302e+00  1.2003786105778920e+00  1.4738677238168185e-01  3.8981102055443306e-01  3.7864768984046898e-01  9.7349398688363331e-01  4.9849133680355356e-01  1.0266821266035251e+00  2.2876608739778574e+00  2.1882067318173459e+00  2.0368067493030804e+00  1.5002819617126542e+00  2.0504110454077491e+00  4.2127595112521721e-01  1.6822551682232750e-01  3.3491364224920817e-01  4.5243732858911839e-02  1.4604425053487669e+00  2.2439791391784344e-01  2.6003964179083683e-01  1.8717751132041638e+00  1.9895127872598961e+00  1.9481605951896470e+00  2.1193533772482782e+00  1.3848496871993772e+00  0.0000000000000000e+00  4.6630827342486103e-01  7.3429499558184519e-01  7.9801750223509016e-01  1.0688392175310510e+00  1.0527910521698267e+00  2.0341103886900198e+00  4.2380310115848913e-01  1.8807485737880532e+00  4.0364771692343782e-01  1.5570098133843921e+00  1.9322060174660431e+00  1.9222590462373672e+00  1.4943208962848104e-01  8.3978864198516789e-01  6.1151769473426454e-01  1.6315041818138289e+00  1.3717358872942105e+00  1.5576666953586902e+00  5.8961827159284080e-02  1.9056421899177997e-01  9.9993658820852449e-01  1.1110717651556112e+00  7.9341485879090379e-01  8.0109825667952261e-01  1.0951512652655397e+00  2.5871551342560578e-01  1.9537380291133655e+00  1.4612237799310244e+00  1.1873509400587274e+00  2.5253958952898270e-01  7.3943722302454773e-01  1.4406140068390596e+00  4.5851596324462479e-01  3.1362476007435147e-01  4.9653974645593885e-01  4.9098192915363781e-01  8.2228922662393278e-01  1.7682783483824067e+00  1.7179654267675007e-01  2.6665144490234982e-01  7.5437856232209444e-01  6.6217491894891456e-01  1.9286769550779235e+00  7.0133162039086339e-01  6.0899471238950387e-01  2.7763090116810087e-02  1.3233861434926716e-01  1.1377491613954609e+00  1.3800447260371875e+00  1.8823102447225279e+00  2.0189982879127060e+00  6.1056980502472957e-01  6.2042001734682273e-01  4.9145441085459168e-01  4.5437641036866733e-01  2.5784352191781534e-01  1.8906298768163263e-01  5.8564124611825641e-02  1.7261778041724302e-01  2.2737817717517732e+00  3.7833419922168321e-01  4.9505748805941868e-01  4.5353736194701755e-01  1.5064896295347270e+00  8.7690549404744622e-01  0.0000000000000000e+00  1.6628283897145264e+00  1.0921223564622671e+00  8.8477255144007105e-01  2.1046537008615265e+00  8.5820518725791339e-01  1.5146336224365631e+00  1.5324672329860178e+00  1.7930916378308421e+00  1.8932156702533041e+00  1.6705931060053945e+00  1.3604536769083326e+00  2.0798361881264520e+00  2.0972428608261220e-01  1.4721299728396406e+00  1.5822918652933207e+00  2.2306249236943891e+00  1.4061330710669337e+00  1.0121467431876874e+00  1.2342724432826517e+00  1.3880852885075926e-01  2.1042687443580577e+00  1.8228054553162059e+00  5.2848016164036649e-01  8.1587330880786027e-02  2.1844995927596639e-01  2.5902139098821536e-01  5.3025453470214345e-01  6.2110641457424953e-01  8.6281319569233195e-01  1.1396492041553998e+00  1.8659506191908033e+00  4.6086508605801596e-01  9.8385917489661745e-01  2.3028229737030559e+00  1.9133058691471451e-02  0.0000000000000000e+00  9.6421089292963180e-01  0.0000000000000000e+00  1.1693746156317529e-01  0.0000000000000000e+00  6.0216541267909185e-01  2.1884861277591636e-01  1.5497597548622215e+00  1.1077966139479849e+00  1.9245900950174313e+00  2.1364889168000323e+00  2.0277066599404843e+00  1.2793138735537608e+00  1.2196125443921026e+00  3.8968187705946217e-01  5.2446875980567687e-01  1.1058538064060790e+00  6.0070739455857114e-01  1.5733286321967679e+00  7.7820693619753745e-01  5.5367173587399710e-01  8.2220844788344893e-01  1.0354858181803714e+00  2.1472937397193226e+00  2.0545338683884182e+00  8.2609942220132321e-02  1.2104632831190807e+00  2.8694792655984258e-01  7.0371283440243959e-01  7.9376131435851538e-01  5.3077954488608581e-01  6.7623623181648040e-01  3.1728591129996880e-01  2.0731255259254295e+00  5.3703668052185016e-01  8.4343666811010376e-01  2.1366618364387100e+00  6.9635630850576802e-01  1.5406796120686569e-01  1.5367173895060215e+00  1.4958449756819994e+00  6.2959539046716617e-01  3.5017429307062675e-01  5.5534827802271991e-01  3.8352907918775692e-01  1.5201616656374530e+00  1.2615612716032334e+00  7.7690768426481616e-01  2.0440322779878297e+00  2.1494096889510188e+00  1.8544226031077338e-01  9.7689509535493491e-01  1.4386498494944504e+00  6.0904332914270587e-01  1.3488673346612368e+00  1.1164321064847498e+00  1.8214685864465392e+00  1.9424398506211569e+00  1.7503363082797281e+00  1.0220217027933018e+00  2.2868385726161407e+00  1.7507464407408183e-01  1.4293511715171816e+00  1.6902933023178495e+00  1.0213450633015928e+00  3.5919066834587215e-01  1.4883212386776914e+00  1.5991045648084625e+00  2.0602229050597498e+00  1.9309294274274758e+00  9.0866681829532747e-01  6.2842831903792362e-01  2.0500650966879430e+00  2.2019283673348902e+00  5.6713286674880603e-01  3.3692640483607739e-01  6.4515166306345600e-02  3.4303140494713136e-01  1.7532646732487080e+00  2.2305443487929737e+00  1.8873830975911783e+00  2.7568792335964213e-02  7.8667533062200101e-01  5.5876096899576089e-01  4.1951981097110497e-01  1.4338682834591818e-01  3.3957124729707988e-01  4.9038176687273916e-01  6.0739588399907452e-01  8.5946198086345760e-01  1.9774845922357094e+00  1.5039624225886890e+00  2.1426973907612799e+00  8.4109154523302199e-01  4.2172573564512256e-01  1.0599000165980039e+00  1.6757142952104906e+00  7.3005844389423058e-01  6.2492865674699982e-01  1.2498676144859839e+00  2.1982859752689629e-01  7.2277138376349503e-01  1.8098782982830410e+00  1.9272944274985031e+00  1.9723961012315576e+00  2.1165768833990684e-01  1.7902299824708964e-01  6.7560603078178494e-01  1.5263298885854739e+00  1.3323238333730003e+00  1.3571534641458416e+00  1.7358337664608101e+00  4.7991830882114417e-01  4.5077920998854948e-01  1.3683496078750574e+00  7.7957804433749600e-01  1.4847646877383358e+00  1.6872111116906228e+00  8.9058816539012198e-01  1.1073607821073974e+00  1.1003470135027773e+00  1.3651066278582900e+00  1.8264067387489294e-01  2.0191187475973901e-01  4.6166419730231895e-01  6.1383634001409970e-01  2.0310151337486662e-01  1.6713396993710745e+00  1.6690754258963403e+00  2.3213405690580027e-01  2.8736611412166357e-01  9.2393768894083772e-01  1.2530303230468436e+00  5.6852978628518447e-01  1.6280752765642498e-01  0.0000000000000000e+00  2.2052228914781907e-01  2.2315023996340153e-01  4.1341141236680995e-01  3.6977224189378188e-01  1.1140368510683418e+00  7.2267059322958427e-01  7.8733038659072230e-01  1.0374589396150820e+00  1.3523408331015092e+00  1.2491427115051561e+00  1.5557549367719625e-01  1.3325502794858344e+00  7.5963542402724582e-01  1.0197309608578307e+00  6.3339729317570126e-01  7.8174216201789926e-01  9.3998647873450769e-01  9.6226942251139411e-02  3.6449295714064223e-01  4.1243924906031709e-01  2.2939642525374744e+00  2.5251320651951