<?xml version="1.0"?>
<VTKFile type="UnstructuredGrid"  version="0.1"  >
<UnstructuredGrid>
<Piece  NumberOfPoints="14566" NumberOfCells="28705">
<Points>
<DataArray  type="Float64"  NumberOfComponents="3"  format="ascii">0 3 0  0 0 0  2 0 0  2 3 0  2 1.5 0  0 1.5 0  1 0 0  1 3 0  1 1.083333333333333 0  1.1875 2.041666666666667 0  0 2.25 0  2 0.75 0  0 0.75 0  2 2.25 0  0.546235380116959 1.875 0  0.5 0 0  0.5 3 0  1.5 3 0  1.5 0 0  0.75 0.5416666666666666 0  1.397727272727273 0.6098484848484849 0  0.7400140009560829 2.446414029671393 0  0.4305555555555555 1.125 0  1.413194444444444 1.5 0  1.511633211678832 2.466088807785888 0  2 1.125 0  2 1.875 0  0.9531937950269089 1.626186072001953 0  0 0.375 0  0 2.625 0  1.446040104181028 1.054219142057518 0  2 0.375 0  1.613091388971457 2.052622604569185 0  0.3978050788698214 0.7279316172646906 0  1.122034767567557 2.604844747138268 0  0.3976808956026018 2.243942213143948 0  0.4013368467572315 2.628399882254177 0  0.3915890028118316 1.51493140652058 0  0 1.125 0  0 1.875 0  2 2.625 0  0.3745170793253871 0.3535227724338494 0  1.25 0.271574440052701 0  0.7159977215410738 1.350437455814274 0  0.7085197291365257 0.8893370480908342 0  1.706597222222222 1.6875 0  1.696549685796197 1.296777466148165 0  0.8698085846740859 1.947017983326575 0  1.057825596389426 0.7281189555125724 0  1.726188774537831 0.5625 0  1.710431770995195 0.8791872695688975 0  1.75 0 0  1.75 3 0  0.8440250195969674 2.735409186889472 0  1.557361044457889 0.3036611226867964 0  1.021382495358583 2.307750712964459 0  0.9438037150343664 0.3025888941184255 0  1.422209083254015 1.809204266327822 0  1.1296651354649 1.367957652701011 0  1.705681205609129 2.699620803739419 0  0.6535540818054447 0.2653941918737499 0  0.2152777777777777 0.9428714285802794 0  0.6764082332685148 2.163317662154022 0  0.2152777777777777 1.300399603586393 0  0.6738797158697101 1.626558021437488 0  0.2022665791879026 2.438046698110248 0  0.25 3 0  1.38627383238228 2.730439726544761 0  0.2731176900584795 1.979408052870387 0  1.788988139129612 2.433013002880604 0  1.395884399116 2.218504617781978 0  0.1889297394923665 1.6875 0  0.1980492074855439 0.5524276374026066 0  0.25 0 0  1.21434773979559 0.9359132279393747 0  1.162660410385986 1.781867069461707 0  1.25 3 0  0.75 0 0  1.25 0 0  0.75 3 0  1.116873502935106 0.4842556563055509 0  1.277400787068369 2.424746368423087 0  0.6657421642148181 1.120641644021926 0  0.6306361732889977 2.648994399124817 0  1.794501480514241 0.241165679657173 0  0.1995152701183739 2.762823153254418 0  0 0.1875 0  1.470025947155241 1.280086929735272 0  1.484570527100927 0.8252183799387092 0  1.242989691626331 1.165848469786021 0  2 2.0625 0  1.778024971434719 2.207218987747306 0  1.808812959484196 1.96875 0  2 2.8125 0  0.5594399178162468 0.4532199053554985 0  1.780142342986769 1.09053052213301 0  1.125 2.822181958293781 0  1.15437464724632 1.574257741882416 0  0.9258053099401093 1.28898157144858 0  0.9414800874564364 2.500417763956405 0  1.411666711023481 2.014022948820662 0  0.2133789240500979 0.2115885654001305 0  2 0.9375 0  0.3965527976610288 1.72604344321965 0  0.608995122443001 0.7011531686631721 0  0.4138123102177461 0.9264961621055305 0  0.5749863647331368 2.334798630725083 0  0.1987198992492864 2.239057349078047 0  0.4984282205902797 2.070129278380434 0  0.4102452351893879 1.319883055253778 0  0.8831982801865097 2.153602641944079 0  1.623548628757152 1.494145162716432 0  0.2033775143403518 0.7477945287866119 0  0.1940536105539605 1.49340186742834 0  1.202090490568975 2.235671565210217 0  0.8466070242559173 0.7295024517030759 0  0.9532944875716811 0.8934161868796685 0  0.3945591291744741 2.436218116639167 0  0.390119492358766 2.83027622360013 0  0 2.0625 0  1.588911207098181 2.279111216118611 0  1.611152302833269 1.857591555864952 0  1.812477793912983 1.451840609478801 0  2 1.3125 0  0.7299720177885035 1.812388578202914 0  0.3990727621832508 0.1632073431396914 0  0.3931607960443144 0.5402918167664157 0  0 2.8125 0  0 1.6875 0  2 2.4375 0  0 2.4375 0  0 1.3125 0  0 0.5625 0  0 0.9375 0  2 0.5625 0  2 1.6875 0  2 0.1875 0  0.625 2.846709428529378 0  1.253682590775686 0.7434363360896369 0  1.523086796648675 1.651807599666824 0  0.9411304688418869 0.5621263133613359 0  1.125 0.1357872200263505 0  1.41562649854122 0.1731862647719977 0  1.300240745075605 0.4510277883928345 0  1.555879490833153 2.817654319666713 0  0.863104561805179 1.463788789510293 0  0.572634432547554 1.469842074183063 0  1.642240545166245 0.1445731778058382 0  0.875 0.1332980020323718 0  0.2487211794256408 1.121635516083336 0  1.573217117267048 0.6642797787692021 0  1.532509884912857 0.4854117220234143 0  1.318319980339258 1.657499541059452 0  0.6967186728143467 1.986865355086986 0  1.301817177279576 1.331659278786805 0  0.8248882106199859 1.030466229808272 0  1.605750972809839 1.139912728256475 0  1.843199325955406 1.797053511030686 0  0.2063238460867002 0.3820355271287071 0  0.9827851948228239 1.80512896198594 0  1.826970058610837 0.415996684272712 0  1.815548982041781 0.725681816908465 0  1.014647505823572 2.041356564123892 0  1.284408782125187 1.904792104550927 0  0.8525918307249374 2.320050269794524 0  0.2372387727050605 2.600742842596934 0  1.373827344559335 2.562638247702516 0  0.5704448974488513 1.261876095074753 0  1.538823098639072 2.640881839270544 0  1.660201480254432 2.532489581187561 0  0.587112621207044 2.494677032146202 0  0.5461561799319455 1.015291367624069 0  1.572288330999834 0.9577191413849884 0  1.867150148288836 2.71875 0  1.091315479755366 2.44965514014893 0  1.024103073242107 1.485231137654558 0  1.091268073330427 1.213602378001351 0  1.875 0 0  1.875 3 0  0.125 3 0  1.85164596646159 1.239574888136519 0  0.5144737921873372 1.618478755254639 0  0.789902825397775 1.213881397553005 0  0.7871809298881783 0.3737161797805977 0  1.096901857517183 0.2870816670855633 0  0.8110918697082464 2.584047356465716 0  0.9744132373451575 2.651779594380161 0  0.9648544366790877 2.842449488677214 0  0.625 0 0  0.5537257935489299 0.1460342872932163 0  1.7705015452388 2.843516086018942 0  0.2713847131997923 1.821813683845335 0  1.671841286637515 0.4171978006585984 0  1.280104727509329 2.845993023801107 0  0.5072888412610886 2.735536974420782 0  1.875977913857691 1.59375 0  1.401867863809804 0.3303526277085793 0  0.125 0 0  1.087945285896537 1.911207589900836 0  0.5539485640670052 0.8506752587845635 0  1.802031380552774 2.583004008860892 0  1.247745080385359 0.5925801107113228 0  1.846532469172136 0.9514635756358938 0  0.5153558527085855 0.3136387920935104 0  1.259950669466945 2.655447264867863 0  0.3543785282176074 2.102738236554382 0  0.1206765555899243 1.96875 0  0.4171673824311519 1.94679909469644 0  1.341725400962083 0.8616865987507794 0  0.854245297200512 1.73446714966294 0  1.266296445207783 1.476175406081331 0  0.7308144723714898 0.1432494811275388 0  0.1053667300439123 1.03125 0  0.1883996934132187 2.095616965421765 0  0.768270499960176 2.857490829759849 0  1.872206565425325 2.315809268737681 0  0.605673697931064 1.748526679480376 0  0.8134983007371885 1.597494620919787 0  0.7117096079616703 1.491055883497182 0  0.1027173614314198 0.84375 0  0.7128018016146636 2.308840771762036 0  0.1027094327320722 1.21875 0  1.421885244136567 2.869709256359061 0  0.3030107335519462 1.40771559083607 0  0.1294370239590212 1.816488826586231 0  0.1046314960532825 2.340260612134282 0  0.3066854642776671 0.8393938660272582 0  0.529850680728582 2.204447295200468 0  0.2974747181276535 2.338478572792295 0  0.100880635356019 2.53125 0  0.1038707739568649 0.6527523034992539 0  1.863094387268916 0.5487629667361756 0  1.290517272107038 2.131470167148579 0  1.52111741644401 2.157338416251437 0  1.464641663798353 2.337208835657457 0  1.281373773327221 0.1357872200263505 0  1.100886779012995 2.145731672614935 0  0.4928959427886405 0.6317006424650523 0  0.1060944877986065 0.2925173789259402 0  0.875 3 0  1.625 3 0  0.2831533857306817 1.592870651929527 0  0.09446486974618326 1.59375 0  0.1003055413557448 0.4622840038043601 0  0.3012082573901707 0.6364451147081118 0  0.09395132912287625 1.40625 0  1.864428922933186 2.097152368249048 0  1.075790964199689 0.9639927685251957 0  1.577647454334931 1.364983118044755 0  1.628153344277988 2.404788350306467 0  1.167077918760056 1.058552924814679 0  1.074739275689835 1.681406025969635 0  1.148987566563863 0.8222984211808768 0  1.306654321632048 1.041166548652151 0  0.9081130845912743 0.4320037560380569 0  1.737437621288794 1.559740937438288 0  1.383346867833016 0.7387963733691006 0  1.375 0 0  0.8103372716496738 0.2459264405828014 0  0.3210031681523711 1.2276684776974 0  0.3413174941012037 1.032568939725027 0  1.736806510857051 2.085914365958977 0  1.681325946641243 0.7465125094501177 0  1.876398417646562 0.1344843882356253 0  1.358990329084177 1.218033987372085 0  1.495613030057731 1.915663152891221 0  1.895663085261757 0.8297047254494576 0  0.6211324108585357 0.569808241175043 0  1.11972651515424 0.6140269112896967 0  1.183436751467553 0.377915048179126 0  1.030338608984736 0.3934222752119882 0  0.7763722399334972 2.085428896480006 0  0.9995343277854785 0.1813115376207536 0  1.375 3 0  0.875 0 0  1.625 0 0  1.125 0 0  0.625 3 0  0.375 0 0  0.375 3 0  1.125 3 0  0.7043160420037512 2.750032606584533 0  1.300621845436222 1.781043998964619 0  0.1197771551622881 2.868065229891808 0  1.709085611581005 2.310552442506958 0  0.90539088267281 1.16540809825354 0  1.689559846240368 1.003240252671143 0  1.893127565596496 2.499519646159833 0  2 0.28125 0  1.673576840463066 0.2634794911438599 0  0.2909513983845114 0.4715422116238709 0  0.8306437486451163 0.9071799064847175 0  0 2.15625 0  2 0.65625 0  1.647615107768551 2.170843453709399 0  0.1234053348441461 2.65967874202093 0  0.3045785620803027 2.701846039693036 0  0.2418977276602471 2.877763189539751 0  0.6645594122709834 0.3884004847932273 0  1.173565072488407 2.356569317260697 0  1.72214809056434 1.808050877895925 0  0.7333281117019459 0.669002473049245 0  1.225238049542525 2.5368112091
[...]
<PointData  Scalars="f_1330"> 
<DataArray  type="Float64"  Name="f_1330"  format="ascii">0.0000000000000000e+00  0.0000000000000000e+00  0.0000000000000000e+00  0.0000000000000000e+00  0.0000000000000000e+00  0.0000000000000000e+00  0.0000000000000000e+00  0.0000000000000000e+00  2.0307328010773409e-02  7.6917966051177775e-02  0.0000000000000000e+00  0.0000000000000000e+00  0.0000000000000000e+00  0.0000000000000000e+00  4.2775583578216467e-02  0.0000000000000000e+00  0.0000000000000000e+00  0.0000000000000000e+00  0.0000000000000000e+00  7.2714657386643011e-02  1.1252798852660775e-01  7.3464453470861626e-02  9.0487992822201019e-02  2.1344884322178063e-02  1.0284637445880894e-01  0.0000000000000000e+00  0.0000000000000000e+00  -8.5652907546647492e-02  0.0000000000000000e+00  0.0000000000000000e+00  8.2451567584322913e-02  0.0000000000000000e+00  8.9889072886109034e-02  1.2104162273472098e-01  8.7075650841655527e-02  1.2209818537597716e-01  8.5461368451790323e-02  8.6219356034005601e-02  0.0000000000000000e+00  0.0000000000000000e+00  0.0000000000000000e+00  8.2051833048850623e-02  7.0862032241968270e-02  -1.1280686922027619e-01  4.8647591542640464e-02  1.1015938733964279e-02  1.4621886623352990e-02  -9.4530606444601616e-04  9.3896803199357726e-02  7.6996769394630613e-02  8.5115035741565440e-02  0.0000000000000000e+00  0.0000000000000000e+00  5.7278921945340809e-02  6.9563698088935325e-02  9.4619941386218612e-02  7.1863602879662036e-02  4.8010835228031297e-02  -2.4458115486265686e-02  5.4678281214509121e-02  5.8824221299413386e-02  1.1747678789647654e-01  6.5605779129179351e-02  1.1727685855578167e-01  -9.8939259638898783e-02  8.7918717746037114e-02  0.0000000000000000e+00  7.2174647855867413e-02  1.3036473356950790e-01  6.2248925627407074e-02  1.1045598775303286e-01  1.1085967544179917e-01  8.5666030219572420e-02  0.0000000000000000e+00  8.2705088675528893e-02  2.1924866150205028e-03  0.0000000000000000e+00  0.0000000000000000e+00  0.0000000000000000e+00  0.0000000000000000e+00  9.6649439162449960e-02  1.0453586763676531e-01  -9.9157367136036689e-03  7.4500835188116829e-02  3.2127976137862620e-02  4.4404810267576922e-02  0.0000000000000000e+00  3.1068925123277608e-02  1.1042045153805989e-01  2.6923344010259063e-02  0.0000000000000000e+00  7.4298611595583014e-02  4.7824026016052297e-02  0.0000000000000000e+00  9.0584574917004279e-02  4.6199439307721989e-02  4.9035413293670775e-02  -2.0932176346533063e-02  -7.6948868646706303e-02  8.7852124831519024e-02  9.6549966168040208e-02  4.1731949016319402e-02  0.0000000000000000e+00  8.5659984897540176e-02  9.3590732634236631e-02  1.2257980237795084e-01  1.0043422857664788e-01  9.7893169888175868e-02  1.0268788537498090e-01  7.6341170322151208e-02  5.9179975710404543e-02  -5.1292145734424038e-03  9.8566080618553348e-02  1.2202235051279807e-01  9.2425705391012303e-02  6.9794613790532825e-02  6.4931058512161730e-02  1.1325525372315369e-01  4.3678314422573507e-02  0.0000000000000000e+00  1.0473628834582355e-01  5.2275469311628214e-02  -1.1640776698662016e-02  0.0000000000000000e+00  -5.9001616372759608e-02  4.2213972518382471e-02  1.1099972917553534e-01  0.0000000000000000e+00  0.0000000000000000e+00  0.0000000000000000e+00  0.0000000000000000e+00  0.0000000000000000e+00  0.0000000000000000e+00  0.0000000000000000e+00  0.0000000000000000e+00  0.0000000000000000e+00  0.0000000000000000e+00  3.7994277171530901e-02  9.6205058717106870e-02  1.6767593434249765e-02  8.9722705313828088e-02  3.7750177933839849e-02  4.7685318278930168e-02  9.5501770964319443e-02  4.3906710820820011e-02  -1.3386694899178750e-01  -4.2112874053480520e-02  3.2197134654488015e-02  3.3653541795483612e-02  1.2198124936473544e-01  1.0490491125388933e-01  9.5702783260913180e-02  1.5538393689749255e-02  1.8280278728458076e-02  1.2923420088530545e-02  1.8238797226138447e-04  5.3165234672688438e-02  1.9772491192161731e-02  6.4713556207757789e-02  -2.6263952988347564e-02  4.4518528650259126e-02  6.3928388235454076e-02  6.2698463157426082e-02  5.3794435899986677e-02  7.4450623264143020e-02  7.4415500764553458e-02  9.6764098653881345e-02  -8.8625401101703020e-03  7.9952441813035083e-02  7.9981044216188735e-02  9.1687956112850050e-02  7.2852151585196367e-02  9.2084848290685029e-02  2.5491695361795186e-02  1.0082713454616757e-01  -6.3654254256947776e-02  -7.0341923028207848e-03  0.0000000000000000e+00  0.0000000000000000e+00  0.0000000000000000e+00  1.3871545461672415e-02  6.6456380547536545e-03  -7.8305537727138136e-02  6.8774977254716985e-02  7.4387438492752617e-02  7.1249825438616701e-02  8.0053539352918340e-02  4.2327501361676560e-02  0.0000000000000000e+00  3.7930380651202411e-02  2.5021707905623403e-02  1.2178033184240600e-01  7.4338736508705969e-02  4.1824841947476460e-02  6.6126208303099815e-02  -5.3042543216796616e-03  8.2432386500878307e-02  0.0000000000000000e+00  3.2826314352192833e-02  9.6412551976738828e-02  5.0097183260222840e-02  1.0286590038543877e-01  4.6119602278712334e-02  7.5397050059957116e-02  8.0911424635383464e-02  1.3205623593308996e-01  7.8430824207661426e-02  1.0781577901240386e-01  1.0379167955594536e-01  -9.1579310970604955e-02  3.6350780517059441e-03  3.3386339224512632e-02  7.0197730343390566e-02  1.0577201250250874e-01  3.3131596073061972e-02  4.6302043626788449e-02  -2.6854630946289797e-02  -1.3757226937275238e-01  -1.3122359309800860e-01  6.2939752917477360e-02  7.4592967793452550e-02  6.9289116189610561e-02  3.6205396702639524e-02  1.2464690275299745e-01  8.2100531708029070e-02  5.5277240449383029e-02  1.2952415036941065e-01  1.0509945883092446e-01  1.1667491465826582e-01  4.3625977870978418e-02  5.4754047611466961e-02  4.1737988820916047e-02  9.7112442982579386e-02  1.0727637634074004e-01  1.1270004556220539e-01  3.7101463477224865e-02  8.6651340257196022e-02  1.1073588244383048e-01  3.0949197573973485e-02  0.0000000000000000e+00  0.0000000000000000e+00  1.2837740623251265e-01  7.2649135060796413e-02  4.2993812635958431e-02  1.1601793382888992e-01  7.2395196520756072e-02  4.4666985742475497e-02  6.8999975498588939e-02  8.1884674065372757e-03  9.5383616445879477e-02  4.9717363784728894e-02  -3.2686622747495363e-02  8.9388783604938751e-02  7.2267721837976695e-02  8.0652088451160411e-02  -8.4507496117468828e-03  1.0983918717090607e-01  0.0000000000000000e+00  5.1994435147080471e-02  1.1571664952932016e-01  1.2862602531865949e-01  7.6682637451632271e-02  9.5820884281638777e-02  1.3101747651258053e-02  3.6317911941420103e-02  7.3414217986233515e-02  3.8687127457798502e-02  9.0174988987884369e-02  1.0055414527840641e-01  8.4022792616957720e-02  8.7278454277462419e-02  3.4419354784021035e-02  4.9026097088578538e-02  0.0000000000000000e+00  0.0000000000000000e+00  0.0000000000000000e+00  0.0000000000000000e+00  0.0000000000000000e+00  0.0000000000000000e+00  0.0000000000000000e+00  0.0000000000000000e+00  5.3002518377440987e-02  2.5571663102767730e-02  1.5469712484345461e-02  9.0262316204632820e-02  -3.8238811028102775e-02  7.4458047524090312e-02  3.1849798271113269e-02  0.0000000000000000e+00  5.1507976903195342e-02  9.6517221462929598e-02  3.8659537788573006e-02  0.0000000000000000e+00  0.0000000000000000e+00  9.7294476337172392e-02  3.9105662958701555e-02  6.9333682858362569e-02  2.5483184221017453e-02  7.5126613282898380e-02  9.8685626453509701e-02  3.5795208872634099e-02  7.3288088871791321e-02  9.4220598195408081e-02  1.1085957062826532e-01  1.0817390154077858e-01  3.2984420724171230e-02  3.6150087850288400e-02  3.2162071970244031e-02  1.0420478779575203e-01  2.2174126959749404e-02  -3.8505830076703001e-04  1.0379524225217641e-01  1.0108191852631968e-01  -2.7529163387293169e-03  0.0000000000000000e+00  1.4088234380222676e-02  5.9300036528304477e-02  8.5324272321858255e-02  7.4413161111416964e-02  1.7045890269887069e-02  3.1146839792729968e-02  2.6631206142332178e-02  9.9213789447140710e-02  6.6559311086852618e-02  2.3372576384014437e-02  5.4058651528294609e-02  2.8086568770851830e-02  6.0077639868027166e-02  8.4939415463928677e-02  0.0000000000000000e+00  -6.3995680081513115e-02  3.5571355727024322e-02  3.8624185892071901e-02  7.0093269274706826e-02  1.0188954273718785e-01  2.4737595613925377e-02  0.0000000000000000e+00  1.4651542442000082e-02  5.7443620574661007e-03  9.9493192400032959e-02  -8.8997469431201612e-02  2.5092402617362796e-02  3.9178571825232426e-02  -4.2447997302817550e-02  -1.2425718924484573e-01  8.3402957510257517e-02  2.5457589510272247e-02  2.6313502275949443e-02  7.3591094775292160e-02  5.3984525189684981e-02  2.6115779836084832e-02  6.5341598269843856e-02  6.0563449945212740e-02  2.0467906327664983e-02  6.6746858936870185e-02  -5.0819085712860222e-02  0.0000000000000000e+00  2.5265362334481768e-02  1.0993632092968872e-01  9.4936172193559789e-03  7.1117923334171079e-02  7.5625189317762381e-02  8.8529292841127497e-02  8.1584749179292759e-02  8.9543995177825603e-02  4.0787132928872545e-02  1.2105468687071184e-01  1.0916242792694694e-01  -2.1525562279546425e-03  9.0550198522219909e-05  -1.1283583007718843e-01  9.0230681245163161e-02  9.6639922429889766e-02  7.5039926962287173e-02  9.1286306488395474e-02  8.7454439375253837e-02  8.3565767376041655e-02  -1.0733338796177506e-02  -1.9985628424836352e-02  3.4563212398132065e-02  1.0715497725375842e-01  1.2600774403152240e-01  1.1633843499455614e-01  4.2480843645959377e-03  2.3653367933564848e-02  1.0939242687732101e-01  9.3511247071499964e-02  2.9398297190883032e-02  1.1179500836570462e-01  9.1207569545904102e-02  -4.9821963584194356e-02  2.6620788052568369e-02  6.8274488253248819e-02  0.0000000000000000e+00  5.9300101270155156e-02  1.1717792055757269e-01  1.1895852944392012e-01  -2.0027988180019860e-02  8.5132680024011920e-02  8.8357502028646617e-02  1.0457585027745796e-01  -6.5261528400476681e-04  -5.8944077618487779e-02  2.2794585444162449e-02  1.8980896750887322e-02  5.8759456128938660e-02  6.7095049371392032e-02  2.7748001231136073e-02  3.3993218813677006e-02  9.3003184018300225e-02  3.2434146287626808e-02  9.4685328974627045e-02  1.0559591697756991e-01  1.3468526622218335e-01  7.9812831512719659e-02  8.0702717355878653e-02  4.8609217117803513e-02  1.2127765949428648e-01  1.0584762298636810e-01  9.3569252284684934e-02  7.5859426268025595e-02  2.0299815985557131e-02  7.3581971941058102e-02  1.0022404628912403e-01  9.4446708758442147e-02  1.1748198307186289e-01  -1.1972889681780610e-02  -6.2499366068033491e-03  2.8252394113548518e-02  9.2843799322498907e-02  1.3528604303504558e-02  5.5280762000632665e-02  6.0306873533329752e-02  1.1056743388420552e-01  9.9437170684267162e-02  -1.5811040493657336e-02  6.6862154967744419e-02  2.5641589577200457e-02  4.8996007414647887e-02  6.8078556847647673e-02  6.7409026066478667e-02  6.4248245541554339e-02  7.3805926158268037e-03  2.9355743469883646e-02  6.3564650073034315e-02  4.8351391913489139e-02  5.4256404795967647e-02  5.7138012359140879e-02  4.4529728541906441e-02  4.7738718774762330e-02  1.0415457276724466e-01  2.1709591880003345e-02  8.8584378051336454e-02  7.6626654839735117e-02  9.3792612483542426e-02  6.6566707235858807e-02  5.5007859239599777e-02  1.1772717440863630e-01  1.3927274042614907e-03  1.1111280672831855e-01  1.0532199343557291e-02  8.2568082492917000e-02  1.1777447974076467e-01  8.7149719056766883e-03  6.3542408378618812e-02  7.6983181500947129e-02  1.0071919922650310e-01  7.4137973430283999e-02  0.0000000000000000e+00  0.0000000000000000e+00  0.0000000000000000e+00  0.0000000000000000e+00  0.0000000000000000e+00  0.0000000000000000e+00  0.0000000000000000e+00  0.0000000000000000e+00  0.0000000000000000e+00  0.0000000000000000e+00  0.0000000000000000e+00  0.0000000000000000e+00  0.0000000000000000e+00  0.0000000000000000e+00  0.0000000000000000e+00  0.0000000000000000e+00  0.0000000000000000e+00  0.0000000000000000e+00  0.0000000000000000e+00  0.0000000000000000e+00  0.0000000000000000e+00  0.0000000000000000e+00  0.0000000000000000e+00  0.0000000000000000e+00  1.5832232677476986e-02  6.7956324213059902e-02  4.8759958308530624e-02  -3.8554688162756492e-02  1.9455018739007533e-02  -8.5128344630131317e-02  7.8846425656659710e-02  9.7676739376138452e-02  9.7926347442095718e-02  1.0691736168296531e-01  8.3181356576992535e-02  1.2793382605671044e-01  6.3449467560568892e-02  -1.2054776740042940e-01  6.0927027476379590e-02  7.4085083858511286e-02  4.0068551674913820e-02  3.9170648897415998e-02  2.6843032803887532e-02  2.0200300111239956e-02  5.1369408658842458e-02  1.1080566448669851e-01  8.1801988541490761e-02  1.0078824617505215e-01  2.0448289007897951e-02  4.6759485627631932e-04  -1.4643353520000074e-02  9.7142077941968677e-02  1.8556060045838259e-02  1.6109897357497335e-02  5.2768329182878784e-02  9.5005882635396735e-02  8.4253163666381803e-02  8.9139880553725986e-02  6.2006769963855408e-02  -1.4259636351270452e-01  1.1685101319766500e-01  1.1882262474657913e-01  1.2624233217945019e-01  -6.6759595856249923e-02  -1.4296124357184919e-02  6.7410083822432174e-02  5.9157674522012413e-02  6.2006400578284986e-02  1.2011391208834292e-01  2.0266266599486705e-02  2.2931464891223673e-02  5.7087727532049930e-02  1.7018494499698521e-02  1.3439393170837635e-02  1.3926761023388329e-02  9.8227231606027282e-02  2.2218450857115601e-02  1.2397056003079113e-01  9.1645481710063856e-02  1.5714810314990519e-02  5.7473283013711386e-02  4.1103657187890608e-02  1.0591172807878628e-01  7.3074342502565406e-02  7.9445630954289720e-02  -5.1789879976463685e-02  -5.4333077334164474e-03  1.5805075849979484e-02  9.9010820871781507e-02  1.6194320689193072e-02  5.6822354491338795e-02  2.6328196912143050e-02  4.9484587556738763e-02  8.6398500822603610e-03  8.5837517593688309e-02  2.3573356786320526e-02  5.1463256366145932e-02  6.7361412713837873e-02  3.3986324287806832e-02  7.5288428768315624e-02  2.3312963539901106e-02  8.4282773101685068e-02  0.0000000000000000e+00  8.1707438622078021e-02  6.4714747058498528e-02  6.7268710190704281e-02  7.1094373853510764e-02  1.0626148529883714e-01  1.5525025749848839e-02  6.6359170343804452e-02  2.7298165187521282e-02  7.7364355277066268e-02  3.4601046183461437e-02  3.2183864332084318e-02  -9.3932151596782962e-02  3.0908686474164327e-02  7.9328923456267325e-02  1.0002435239924917e-01  1.7678484791204936e-02  7.3741192186314017e-02  8.6942953268961454e-02  1.1982312018775467e-02  2.0225350875005699e-02  -8.9152865255218237e-03  1.0110207876169981e-01  8.4648154960087846e-02  6.8615743889747213e-02  1.2977317473958180e-01  3.1148959536289336e-02  6.4083028060827343e-02  8.0082411469213952e-02  9.5693666221994850e-02  4.8974815770710237e-02  8.0652043936986509e-02  7.1993260829120539e-02  6.8626543993733316e-02  6.0092338361233510e-02  8.3945672546792707e-02  9.1142842771604407e-02  1.2865721129352217e-01  -1.3357111527505756e-02  2.2321978359007864e-02  6.0110952604499369e-03  1.4262888119160518e-02  2.9830935557807713e-02  -7.4803904128204188e-02  6.7966703433520043e-02  1.0699667125935289e-01  6.0021974209257881e-03  2.2018458608546104e-02  1.1389202664199770e-01  1.0041836173215893e-01  1.0277559919105686e-02  5.9195445518507833e-02  8.2527947976772500e-02  8.3655298176814094e-02  6.8794770913447004e-02  6.6653032782321403e-02  4.4754960558009996e-02  3.2471395047267440e-02  1.1148815252794252e-02  2.1365034816702690e-02  -1.0125659484275319e-01  4.7695227674288694e-02  4.5914139560067138e-02  4.6510330250035758e-02  7.6019558985657626e-02  9.3599968342257325e-02  0.0000000000000000e+00  1.0104261888092921e-01  8.0736323415372638e-02  8.2595308199645043e-02  2.4370539983974173e-02  7.0149213781613332e-02  9.9690336764182680e-02  4.0171740091517985e-02  -4.0648353967711083e-02  8.2707858411770543e-02  3.3727877529217694e-02  9.5473700302213582e-02  -2.0047223977459720e-02  3.5491040839017378e-02  7.4286854043015604e-02  2.7275756304832845e-02  -1.9070619978591549e-02  9.0928373919278299e-02  9.2476186713595893e-02  1.0308100695219984e-01  2.2335469425736668e-02  6.8108857946552531e-03  -9.9546391235238781e-03  4.7999426543599434e-02  1.5393760858119566e-02  1.2443055155178290e-02  3.1112890883322197e-02  6.7859147848558787e-02  7.9325557479838910e-02  1.1843912580697880e-01  1.1328440239073957e-01  4.8038533273942904e-02  5.4226052491328648e-02  1.0718607194491662e-01  -3.6774235563312260e-02  3.9193387740163888e-03  0.0000000000000000e+00  9.0426450672176278e-02  0.0000000000000000e+00  1.8455913540460975e-02  0.0000000000000000e+00  -1.2013385152941144e-02  2.1894950855367125e-04  6.5664344157197602e-02  9.7165896612454505e-02  -5.1869136641058175e-02  -9.6276105769250775e-02  -1.0030667934484706e-01  9.6611116760844037e-02  1.2147919957052439e-02  6.1583599780725362e-02  7.4658653411109582e-02  7.1316628293463691e-02  5.0830264020461494e-02  3.6506813715166508e-02  7.5193746339644402e-02  5.6584916899908029e-02  7.8078530694570533e-02  8.8428830682055468e-02  -1.4770142339385256e-01  4.6290551979838515e-02  1.5828874829857151e-02  1.2022523105460776e-01  5.5907580882485881e-02  7.6590426304074047e-02  1.8030709515865211e-02  6.3015388538280787e-02  1.1129188928465823e-01  5.8038036375960431e-02  2.1173009790895116e-02  7.1482478653209516e-02  9.8284142816061654e-02  -5.4066890379512983e-02  -6.0227340205509915e-03  2.1918338079400582e-02  5.3977477513867632e-02  9.8440122756430784e-02  7.4470853551971930e-02  5.0446864939229868e-02  7.7567521360389094e-02  6.6170152125457640e-02  6.8608183144733617e-02  7.8913139913759020e-02  9.4199230620490890e-02  4.4785729470535642e-02  4.1525472889484454e-03  1.8243124017530289e-02  1.0433219895861652e-01  4.9723667222143627e-03  9.6539599261825079e-02  1.0098588417905945e-01  2.9877256259222801e-02  8.5537999984431956e-02  6.6577714172856517e-02  9.0442628808521108e-02  1.2577331468948183e-01  -8.0570261573891369e-02  2.1886967383939158e-02  4.7234516341817946e-02  2.5667917542399422e-02  1.2750022347244722e-01  7.0970299720786820e-02  1.0984115415700753e-01  1.0054819549295881e-01  -1.3497831075534061e-01  2.6323607118059134e-02  8.1805417958406068e-02  8.3835275368345605e-02  -8.9079042871902520e-02  -1.0193595244581698e-01  8.0016212914201523e-02  4.9955810842737751e-02  1.4117506625925390e-02  3.2693169058079660e-02  -3.0039892518650226e-02  -8.6134096444642951e-03  7.8831610680332523e-02  6.0574233499098391e-03  1.2631504813157163e-01  9.7767137067231807e-02  5.7535223085050456e-02  2.2135586145900561e-02  3.4839273874332465e-02  4.3371849162458773e-02  1.0394336513966317e-01  -6.9347619336382095e-03  4.9543680468179786e-02  4.9256015143449780e-02  1.3985976532136100e-02  9.3682131507205821e-02  -6.1334380051553412e-03  1.0219293456500023e-01  1.6908430578428813e-03  1.0905134406163804e-01  9.8334532421021192e-02  1.1307459850270116e-01  3.7148269406216967e-02  1.1582785185609867e-01  7.6134912465856991e-02  7.0589201147279915e-02  6.9836820595046839e-02  4.1920248781672040e-02  3.3410596822101249e-02  5.7898734234588148e-02  6.7938206293871956e-02  8.7318810232860214e-02  7.3561423851877111e-02  8.0256773387805111e-02  4.6414925520867817e-02  5.5782100593222708e-02  1.0479472056543196e-01  1.0261146479310862e-01  8.3636015272539124e-02  1.0072518762447916e-02  1.2081251215661745e-01  9.9318654565250727e-02  1.0635081491265161e-01  1.1158810073590633e-01  2.0562841791938277e-02  4.0258787677820318e-02  8.2873424664445333e-02  9.7562523390538891e-02  3.7476439384988715e-02  4.6417998231686103e-02  5.0539097903487672e-02  4.0447135823763219e-02  3.9419265682785080e-02  1.3043923104437785e-01  1.0376616335931024e-01  7.6781938351913201e-02  2.1107018892530447e-02  0.0000000000000000e+00  -2.8937534204357311e-03  4.0423571553991185e-02  7.5790302157031947e-02  7.2179852374167922e-02  1.1029177603862163e-01  1.1699569173323628e-01  1.2609898748582046e-01  1.3118533875487781e-01  1.0290676359897773e-01  1.0447855399305260e-01  2.4373779576417696e-02  1.0430019847274732e-01  9.4102308976498461e-02  8.9099698127617782e-02  8.1659861584027049e-02  1.1746497295082371e-01  1.2685090621192716e-01  2.0245943159588740e-02  7.168134