<?xml version="1.0"?>
<VTKFile type="UnstructuredGrid"  version="0.1"  >
<UnstructuredGrid>
<Piece  NumberOfPoints="14566" NumberOfCells="28705">
<Points>
<DataArray  type="Float64"  NumberOfComponents="3"  format="ascii">0 3 0  0 0 0  2 0 0  2 3 0  2 1.5 0  0 1.5 0  1 0 0  1 3 0  1 1.083333333333333 0  1.1875 2.041666666666667 0  0 2.25 0  2 0.75 0  0 0.75 0  2 2.25 0  0.546235380116959 1.875 0  0.5 0 0  0.5 3 0  1.5 3 0  1.5 0 0  0.75 0.5416666666666666 0  1.397727272727273 0.6098484848484849 0  0.7400140009560829 2.446414029671393 0  0.4305555555555555 1.125 0  1.413194444444444 1.5 0  1.511633211678832 2.466088807785888 0  2 1.125 0  2 1.875 0  0.9531937950269089 1.626186072001953 0  0 0.375 0  0 2.625 0  1.446040104181028 1.054219142057518 0  2 0.375 0  1.613091388971457 2.052622604569185 0  0.3978050788698214 0.7279316172646906 0  1.122034767567557 2.604844747138268 0  0.3976808956026018 2.243942213143948 0  0.4013368467572315 2.628399882254177 0  0.3915890028118316 1.51493140652058 0  0 1.125 0  0 1.875 0  2 2.625 0  0.3745170793253871 0.3535227724338494 0  1.25 0.271574440052701 0  0.7159977215410738 1.350437455814274 0  0.7085197291365257 0.8893370480908342 0  1.706597222222222 1.6875 0  1.696549685796197 1.296777466148165 0  0.8698085846740859 1.947017983326575 0  1.057825596389426 0.7281189555125724 0  1.726188774537831 0.5625 0  1.710431770995195 0.8791872695688975 0  1.75 0 0  1.75 3 0  0.8440250195969674 2.735409186889472 0  1.557361044457889 0.3036611226867964 0  1.021382495358583 2.307750712964459 0  0.9438037150343664 0.3025888941184255 0  1.422209083254015 1.809204266327822 0  1.1296651354649 1.367957652701011 0  1.705681205609129 2.699620803739419 0  0.6535540818054447 0.2653941918737499 0  0.2152777777777777 0.9428714285802794 0  0.6764082332685148 2.163317662154022 0  0.2152777777777777 1.300399603586393 0  0.6738797158697101 1.626558021437488 0  0.2022665791879026 2.438046698110248 0  0.25 3 0  1.38627383238228 2.730439726544761 0  0.2731176900584795 1.979408052870387 0  1.788988139129612 2.433013002880604 0  1.395884399116 2.218504617781978 0  0.1889297394923665 1.6875 0  0.1980492074855439 0.5524276374026066 0  0.25 0 0  1.21434773979559 0.9359132279393747 0  1.162660410385986 1.781867069461707 0  1.25 3 0  0.75 0 0  1.25 0 0  0.75 3 0  1.116873502935106 0.4842556563055509 0  1.277400787068369 2.424746368423087 0  0.6657421642148181 1.120641644021926 0  0.6306361732889977 2.648994399124817 0  1.794501480514241 0.241165679657173 0  0.1995152701183739 2.762823153254418 0  0 0.1875 0  1.470025947155241 1.280086929735272 0  1.484570527100927 0.8252183799387092 0  1.242989691626331 1.165848469786021 0  2 2.0625 0  1.778024971434719 2.207218987747306 0  1.808812959484196 1.96875 0  2 2.8125 0  0.5594399178162468 0.4532199053554985 0  1.780142342986769 1.09053052213301 0  1.125 2.822181958293781 0  1.15437464724632 1.574257741882416 0  0.9258053099401093 1.28898157144858 0  0.9414800874564364 2.500417763956405 0  1.411666711023481 2.014022948820662 0  0.2133789240500979 0.2115885654001305 0  2 0.9375 0  0.3965527976610288 1.72604344321965 0  0.608995122443001 0.7011531686631721 0  0.4138123102177461 0.9264961621055305 0  0.5749863647331368 2.334798630725083 0  0.1987198992492864 2.239057349078047 0  0.4984282205902797 2.070129278380434 0  0.4102452351893879 1.319883055253778 0  0.8831982801865097 2.153602641944079 0  1.623548628757152 1.494145162716432 0  0.2033775143403518 0.7477945287866119 0  0.1940536105539605 1.49340186742834 0  1.202090490568975 2.235671565210217 0  0.8466070242559173 0.7295024517030759 0  0.9532944875716811 0.8934161868796685 0  0.3945591291744741 2.436218116639167 0  0.390119492358766 2.83027622360013 0  0 2.0625 0  1.588911207098181 2.279111216118611 0  1.611152302833269 1.857591555864952 0  1.812477793912983 1.451840609478801 0  2 1.3125 0  0.7299720177885035 1.812388578202914 0  0.3990727621832508 0.1632073431396914 0  0.3931607960443144 0.5402918167664157 0  0 2.8125 0  0 1.6875 0  2 2.4375 0  0 2.4375 0  0 1.3125 0  0 0.5625 0  0 0.9375 0  2 0.5625 0  2 1.6875 0  2 0.1875 0  0.625 2.846709428529378 0  1.253682590775686 0.7434363360896369 0  1.523086796648675 1.651807599666824 0  0.9411304688418869 0.5621263133613359 0  1.125 0.1357872200263505 0  1.41562649854122 0.1731862647719977 0  1.300240745075605 0.4510277883928345 0  1.555879490833153 2.817654319666713 0  0.863104561805179 1.463788789510293 0  0.572634432547554 1.469842074183063 0  1.642240545166245 0.1445731778058382 0  0.875 0.1332980020323718 0  0.2487211794256408 1.121635516083336 0  1.573217117267048 0.6642797787692021 0  1.532509884912857 0.4854117220234143 0  1.318319980339258 1.657499541059452 0  0.6967186728143467 1.986865355086986 0  1.301817177279576 1.331659278786805 0  0.8248882106199859 1.030466229808272 0  1.605750972809839 1.139912728256475 0  1.843199325955406 1.797053511030686 0  0.2063238460867002 0.3820355271287071 0  0.9827851948228239 1.80512896198594 0  1.826970058610837 0.415996684272712 0  1.815548982041781 0.725681816908465 0  1.014647505823572 2.041356564123892 0  1.284408782125187 1.904792104550927 0  0.8525918307249374 2.320050269794524 0  0.2372387727050605 2.600742842596934 0  1.373827344559335 2.562638247702516 0  0.5704448974488513 1.261876095074753 0  1.538823098639072 2.640881839270544 0  1.660201480254432 2.532489581187561 0  0.587112621207044 2.494677032146202 0  0.5461561799319455 1.015291367624069 0  1.572288330999834 0.9577191413849884 0  1.867150148288836 2.71875 0  1.091315479755366 2.44965514014893 0  1.024103073242107 1.485231137654558 0  1.091268073330427 1.213602378001351 0  1.875 0 0  1.875 3 0  0.125 3 0  1.85164596646159 1.239574888136519 0  0.5144737921873372 1.618478755254639 0  0.789902825397775 1.213881397553005 0  0.7871809298881783 0.3737161797805977 0  1.096901857517183 0.2870816670855633 0  0.8110918697082464 2.584047356465716 0  0.9744132373451575 2.651779594380161 0  0.9648544366790877 2.842449488677214 0  0.625 0 0  0.5537257935489299 0.1460342872932163 0  1.7705015452388 2.843516086018942 0  0.2713847131997923 1.821813683845335 0  1.671841286637515 0.4171978006585984 0  1.280104727509329 2.845993023801107 0  0.5072888412610886 2.735536974420782 0  1.875977913857691 1.59375 0  1.401867863809804 0.3303526277085793 0  0.125 0 0  1.087945285896537 1.911207589900836 0  0.5539485640670052 0.8506752587845635 0  1.802031380552774 2.583004008860892 0  1.247745080385359 0.5925801107113228 0  1.846532469172136 0.9514635756358938 0  0.5153558527085855 0.3136387920935104 0  1.259950669466945 2.655447264867863 0  0.3543785282176074 2.102738236554382 0  0.1206765555899243 1.96875 0  0.4171673824311519 1.94679909469644 0  1.341725400962083 0.8616865987507794 0  0.854245297200512 1.73446714966294 0  1.266296445207783 1.476175406081331 0  0.7308144723714898 0.1432494811275388 0  0.1053667300439123 1.03125 0  0.1883996934132187 2.095616965421765 0  0.768270499960176 2.857490829759849 0  1.872206565425325 2.315809268737681 0  0.605673697931064 1.748526679480376 0  0.8134983007371885 1.597494620919787 0  0.7117096079616703 1.491055883497182 0  0.1027173614314198 0.84375 0  0.7128018016146636 2.308840771762036 0  0.1027094327320722 1.21875 0  1.421885244136567 2.869709256359061 0  0.3030107335519462 1.40771559083607 0  0.1294370239590212 1.816488826586231 0  0.1046314960532825 2.340260612134282 0  0.3066854642776671 0.8393938660272582 0  0.529850680728582 2.204447295200468 0  0.2974747181276535 2.338478572792295 0  0.100880635356019 2.53125 0  0.1038707739568649 0.6527523034992539 0  1.863094387268916 0.5487629667361756 0  1.290517272107038 2.131470167148579 0  1.52111741644401 2.157338416251437 0  1.464641663798353 2.337208835657457 0  1.281373773327221 0.1357872200263505 0  1.100886779012995 2.145731672614935 0  0.4928959427886405 0.6317006424650523 0  0.1060944877986065 0.2925173789259402 0  0.875 3 0  1.625 3 0  0.2831533857306817 1.592870651929527 0  0.09446486974618326 1.59375 0  0.1003055413557448 0.4622840038043601 0  0.3012082573901707 0.6364451147081118 0  0.09395132912287625 1.40625 0  1.864428922933186 2.097152368249048 0  1.075790964199689 0.9639927685251957 0  1.577647454334931 1.364983118044755 0  1.628153344277988 2.404788350306467 0  1.167077918760056 1.058552924814679 0  1.074739275689835 1.681406025969635 0  1.148987566563863 0.8222984211808768 0  1.306654321632048 1.041166548652151 0  0.9081130845912743 0.4320037560380569 0  1.737437621288794 1.559740937438288 0  1.383346867833016 0.7387963733691006 0  1.375 0 0  0.8103372716496738 0.2459264405828014 0  0.3210031681523711 1.2276684776974 0  0.3413174941012037 1.032568939725027 0  1.736806510857051 2.085914365958977 0  1.681325946641243 0.7465125094501177 0  1.876398417646562 0.1344843882356253 0  1.358990329084177 1.218033987372085 0  1.495613030057731 1.915663152891221 0  1.895663085261757 0.8297047254494576 0  0.6211324108585357 0.569808241175043 0  1.11972651515424 0.6140269112896967 0  1.183436751467553 0.377915048179126 0  1.030338608984736 0.3934222752119882 0  0.7763722399334972 2.085428896480006 0  0.9995343277854785 0.1813115376207536 0  1.375 3 0  0.875 0 0  1.625 0 0  1.125 0 0  0.625 3 0  0.375 0 0  0.375 3 0  1.125 3 0  0.7043160420037512 2.750032606584533 0  1.300621845436222 1.781043998964619 0  0.1197771551622881 2.868065229891808 0  1.709085611581005 2.310552442506958 0  0.90539088267281 1.16540809825354 0  1.689559846240368 1.003240252671143 0  1.893127565596496 2.499519646159833 0  2 0.28125 0  1.673576840463066 0.2634794911438599 0  0.2909513983845114 0.4715422116238709 0  0.8306437486451163 0.9071799064847175 0  0 2.15625 0  2 0.65625 0  1.647615107768551 2.170843453709399 0  0.1234053348441461 2.65967874202093 0  0.3045785620803027 2.701846039693036 0  0.2418977276602471 2.877763189539751 0  0.6645594122709834 0.3884004847932273 0  1.173565072488407 2.356569317260697 0  1.72214809056434 1.808050877895925 0  0.7333281117019459 0.669002473049245 0  1.225238049542525 2.5368112091
[...]
<PointData  Scalars="f_1330"> 
<DataArray  type="Float64"  Name="f_1330"  format="ascii">0.0000000000000000e+00  0.0000000000000000e+00  0.0000000000000000e+00  0.0000000000000000e+00  0.0000000000000000e+00  0.0000000000000000e+00  0.0000000000000000e+00  0.0000000000000000e+00  -1.1924506424242896e+00  -1.0532508734475554e+00  0.0000000000000000e+00  0.0000000000000000e+00  0.0000000000000000e+00  0.0000000000000000e+00  -8.6709269126863708e-01  0.0000000000000000e+00  0.0000000000000000e+00  0.0000000000000000e+00  0.0000000000000000e+00  -5.1876663313211313e-01  -5.5520163031042669e-01  -5.2748646541345179e-01  -7.3757561124762017e-01  -1.0631843635454732e+00  -3.8711941132435362e-01  0.0000000000000000e+00  0.0000000000000000e+00  -1.3365308068464101e+00  0.0000000000000000e+00  0.0000000000000000e+00  -8.6693365909980002e-01  0.0000000000000000e+00  -5.4056242614365912e-01  -4.7091593267315618e-01  -4.2442805698545077e-01  -4.8857760010374274e-01  -2.2239411745431620e-01  -7.5720224788097890e-01  0.0000000000000000e+00  0.0000000000000000e+00  0.0000000000000000e+00  -1.9966962630081708e-01  -2.6307053915543982e-01  -1.1375042025876598e+00  -8.3926288587854359e-01  -5.0708008576794628e-01  -5.2207240769360130e-01  -1.0941112230061849e+00  -8.4237791640350690e-01  -2.1599274688471959e-01  -3.7011334324734285e-01  0.0000000000000000e+00  0.0000000000000000e+00  -2.5156477052984710e-01  -1.8282246947117886e-01  -7.9984944669057889e-01  -3.1230808398175508e-01  -9.7786946757012283e-01  -1.3367182653809002e+00  -1.1590678235471354e-01  -2.1397034906775184e-01  -3.6342342043816339e-01  -7.7279982075446008e-01  -4.4136078140848500e-01  -1.1040167682762130e+00  -2.0536115131212401e-01  0.0000000000000000e+00  -2.2527060011059433e-01  -4.8432028818015310e-01  -1.6195434258910546e-01  -7.1407381239512357e-01  -3.8963268308894955e-01  -1.9741889723309200e-01  0.0000000000000000e+00  -1.0153005251573259e+00  -1.2626631591344222e+00  0.0000000000000000e+00  0.0000000000000000e+00  0.0000000000000000e+00  0.0000000000000000e+00  -5.3864682910138739e-01  -5.9850871523040250e-01  -9.7486085771944442e-01  -2.8662866357319322e-01  -5.8704833308736853e-02  -7.7420555175231845e-02  0.0000000000000000e+00  -9.3307223047910015e-01  -6.4810447651315439e-01  -1.1790285419877427e+00  0.0000000000000000e+00  -2.5179748647880740e-01  -2.6274246879527186e-01  0.0000000000000000e+00  -3.5349113287210332e-01  -3.2136135251731895e-01  -1.7927132775178356e-01  -1.3353844441649032e+00  -1.2878041994534699e+00  -5.4569745554087734e-01  -8.6876766464679167e-01  -7.3267587196010411e-02  0.0000000000000000e+00  -7.4036613887966729e-01  -6.0959592932498341e-01  -6.1291111048291669e-01  -5.5614620547240723e-01  -2.7108648362634646e-01  -7.0082926159674330e-01  -7.6915203287372380e-01  -9.1794292677509748e-01  -6.8579255445568044e-01  -2.7275082242530729e-01  -4.0388105716949058e-01  -8.4193419121410973e-01  -7.7662869479839414e-01  -1.0011005328330220e+00  -3.5910709439100286e-01  -9.3442823174554213e-02  0.0000000000000000e+00  -4.4669834102558986e-01  -6.2845156847636496e-01  -3.2572282499701533e-01  0.0000000000000000e+00  -1.0711605865440674e+00  -9.1031023718610868e-02  -3.4132018852199442e-01  0.0000000000000000e+00  0.0000000000000000e+00  0.0000000000000000e+00  0.0000000000000000e+00  0.0000000000000000e+00  0.0000000000000000e+00  0.0000000000000000e+00  0.0000000000000000e+00  0.0000000000000000e+00  0.0000000000000000e+00  -1.1466851245515719e-01  -7.9140983064186077e-01  -8.5645505859960092e-01  -6.2377766349812158e-01  -1.3425547040273925e-01  -1.3350365466753367e-01  -4.4169949282674209e-01  -1.0401267082290747e-01  -1.2964207621612165e+00  -1.0095775821447448e+00  -6.4072381274133811e-02  -1.2403088455478950e-01  -4.7765812186164414e-01  -4.2678652440213521e-01  -3.3015096354258916e-01  -1.1737401747717497e+00  -9.2721365145661849e-01  -1.1898128406628128e+00  -1.0415547544934771e+00  -6.3713331316236199e-01  -2.3883268089315024e-01  -1.3066710091654737e-01  -1.2649019124429701e+00  -9.1725508447244808e-02  -1.8697571126539858e-01  -1.0855328733678302e+00  -1.0974421621237360e+00  -7.2544984791436062e-01  -1.5737942589015791e-01  -3.9136476651480828e-01  -9.5675919833588874e-01  -2.3033813439056924e-01  -2.2201587301301895e-01  -4.1332495202701142e-01  -8.0275126220657389e-01  -6.0900246184590079e-01  -4.3715053109550144e-02  -6.2723122588974967e-01  -1.3753257746487340e+00  -1.2868889494603344e+00  0.0000000000000000e+00  0.0000000000000000e+00  0.0000000000000000e+00  -2.3078135396819913e-01  -9.2461742173308303e-01  -1.1394003528076695e+00  -3.5300425101110006e-01  -3.0160090234988607e-01  -4.0515190360792597e-01  -3.6879152892924955e-01  -1.5560546587498261e-01  0.0000000000000000e+00  -1.0095987312309154e-01  -4.1800221035434029e-02  -5.2895722401276157e-01  -1.8856264441649123e-01  -1.3937583630457773e-01  -1.8125686149215570e-01  -2.0851503197077720e-01  -2.7350986872577787e-01  0.0000000000000000e+00  -1.2045004705003575e+00  -6.9319633903302014e-01  -1.0703077403532119e-01  -6.3313366306373142e-01  -1.9407767002625573e-01  -2.2094078928994593e-01  -3.3595517578676998e-01  -5.3011831770493500e-01  -2.2590138552557093e-01  -6.8848267423123310e-01  -8.4116854164829091e-01  -1.2237308484980245e+00  -1.2497795939389145e+00  -1.1795634156011926e-01  -1.9812006038884505e-01  -3.0671252178337782e-01  -1.2131716723993924e-01  -1.1786998150883618e-01  -9.8939855964568368e-01  -1.2435251801157989e+00  -1.1607799141070749e+00  -1.5823958096089605e-01  -6.6024256313060015e-01  -2.1201661107281272e-01  -9.7338970905560068e-02  -6.1035813736790956e-01  -2.6262876227208409e-01  -1.2750237952690024e-01  -4.4249384490440136e-01  -6.3135382475303392e-01  -3.4283510534478445e-01  -8.4432787421074504e-02  -1.2537619488810084e-01  -9.6109992347006803e-02  -8.9282811583547073e-01  -6.1260547821192557e-01  -5.4168545920454714e-01  -1.2154993912140549e-01  -9.7663450800389673e-01  -4.7505234556093429e-01  -5.1341869521774400e-02  0.0000000000000000e+00  0.0000000000000000e+00  -5.7533360824485946e-01  -1.9937320571338304e-01  -8.2507445409703076e-02  -3.3349676780269061e-01  -1.9834215243073097e-01  -1.6368846492602954e-01  -1.0947739952645263e+00  -7.5820803474676013e-01  -3.2447533120723537e-01  -1.1548596786698793e+00  -1.3380427981804861e+00  -9.2793543195543227e-01  -1.0354181767372999e+00  -4.5388933129036041e-01  -4.6833577457762793e-01  -6.8768328740878371e-01  0.0000000000000000e+00  -2.2522630781559189e-01  -6.1941825076374213e-01  -5.8569288998690705e-01  -3.4375215166146256e-01  -3.5263975372501166e-01  -1.8314765364264032e-02  -1.0807956610242595e+00  -8.0466011677200755e-01  -1.1705628808662122e-01  -4.9110609816743289e-01  -7.0240079182249426e-01  -3.9254718766150570e-01  -4.2741637987495884e-01  -9.0914714824405052e-01  -1.8300436987868246e-01  0.0000000000000000e+00  0.0000000000000000e+00  0.0000000000000000e+00  0.0000000000000000e+00  0.0000000000000000e+00  0.0000000000000000e+00  0.0000000000000000e+00  0.0000000000000000e+00  -2.0914274756108647e-01  -1.1506402428293112e+00  -2.4390724788137950e-02  -2.9362599552845836e-01  -1.2029313189894957e+00  -4.4441469712555215e-01  -6.6877600086808583e-02  0.0000000000000000e+00  -1.1110397048889502e-01  -2.3107393936783277e-01  -9.4149953442563838e-01  0.0000000000000000e+00  0.0000000000000000e+00  -4.3464300714039400e-01  -6.9303942611597016e-02  -1.4197222569178050e-01  -4.4398342859697085e-02  -3.3131985520368173e-01  -7.2203795823506667e-01  -4.4799198510039007e-01  -6.4872854693518811e-01  -4.8497198670001262e-01  -5.1151413762250975e-01  -6.5793033808367862e-01  -7.9921911724102221e-02  -8.7956133950664550e-01  -8.9360784412062644e-01  -4.2414035856772614e-01  -3.6933187387647670e-02  -1.8681818965744257e-01  -7.6969898883925647e-01  -4.9747924087230005e-01  -1.2682320859128537e+00  0.0000000000000000e+00  -2.0239624449251321e-02  -7.9565454215580889e-01  -2.7504175832348865e-01  -3.9720675340923628e-01  -2.7325448192425904e-02  -7.2271140123107508e-02  -1.4391816017135334e-01  -2.5272021115257681e-01  -2.6052420883013699e-01  -1.0584706128781221e+00  -9.0534583893131448e-01  -7.2348341140441652e-01  -4.4291659195751842e-01  -9.9368567194059720e-01  0.0000000000000000e+00  -1.0586416307590774e+00  -8.0346522983710811e-01  -4.6326880432515072e-01  -7.3146823732445199e-01  -6.9162275550608798e-01  -4.4507376357515858e-02  0.0000000000000000e+00  -1.1842536269152779e+00  -9.2554719752141668e-01  -3.1882210089104118e-01  -1.3433950811035511e+00  -4.2796117018272704e-02  -1.1190931741267909e-01  -1.3363614389765273e+00  -1.2434392388891444e+00  -9.2314891368412955e-01  -8.4255558127803637e-02  -8.8443940677492880e-02  -2.9492776116612701e-01  -1.1173381004113708e-01  -4.9746588493994610e-02  -1.6475272645747485e-01  -8.3220239283522102e-01  -3.2634508019155087e-02  -1.3259262107571776e-01  -1.1430214295884178e+00  0.0000000000000000e+00  -1.5091970859935691e-01  -5.7769757972662783e-01  -8.8326731553613536e-01  -9.7080750890749457e-01  -6.4394012114305210e-01  -7.6823556626784162e-01  -8.9312251458542857e-01  -7.4139132555055753e-01  -8.5790236089899641e-01  -5.8695752542100710e-01  -3.8125848777932447e-01  -5.7691615208646241e-01  -6.5334545108199726e-01  -1.1629992634034994e+00  -2.7438775901284373e-01  -6.7356053796050452e-01  -5.2916442675765696e-01  -4.8376859923237486e-01  -2.6963377189723808e-01  -9.9028623423104434e-01  -1.2948309653040542e+00  -1.3356586405015241e+00  -1.0095883744730367e+00  -4.3890008047783513e-01  -4.1504593499334175e-01  -4.5675436297525973e-01  -3.0059140729391098e-01  -3.7424880119382428e-02  -7.6943522534845710e-01  -7.1299208898207223e-01  -1.0195179448114091e+00  -5.6625796256420113e-01  -3.0783842011416340e-01  -1.3678387562926022e+00  -4.8561326566728756e-02  -1.5787221086216677e-01  0.0000000000000000e+00  -8.2083328827708024e-01  -5.9326571633221081e-01  -5.8999708226065328e-01  -1.0357025604493841e+00  -5.4718348688949725e-01  -6.6392753102691138e-01  -7.0398181668522863e-01  -3.7067030565723202e-01  -1.0377797321589437e+00  -1.0747942796535164e+00  -6.1460469614407383e-02  -1.9109932852023365e-01  -3.1215398417301965e-01  -9.9745102887252565e-02  -8.3426996349566032e-02  -8.9811235414680390e-01  -1.1904562452406009e+00  -8.0053917140043718e-01  -6.7252734903531564e-01  -5.0591899420065567e-01  -7.5762642778851785e-01  -7.6780020867554677e-01  -1.1031087350343882e+00  -3.8594238453171437e-01  -3.0421078622839615e-01  -2.4031857219098290e-01  -5.2878398812333616e-01  -4.4390031642182803e-02  -5.8256752570004333e-01  -7.8940899187903080e-01  -8.2710448275925441e-01  -3.9729468128614032e-01  -9.7281606515046537e-01  -1.6926783595433226e-01  -6.2195446039858737e-01  -2.3947558293152282e-01  -9.2195947634903497e-01  -1.4290489530145137e-01  -1.9376731928727869e-01  -2.9238093670443377e-01  -6.2881483899518409e-01  -1.2617408373702195e+00  -1.5956288802629245e-01  -5.7591824047601457e-02  -9.4260541891646052e-02  -2.3860557699413562e-01  -2.3435864899881428e-01  -1.6734192444546353e-01  -1.4317872062864320e-01  -1.2311016950995531e-01  -2.6291020810965571e-01  -1.0052218999077156e-01  -1.3142123359004576e-01  -1.5437665069060402e-01  -9.5399266539230657e-02  -9.8772006643820312e-02  -3.9107840669518473e-01  -5.3979121602326152e-02  -9.5124440244602992e-01  -8.3854207931515401e-01  -3.1128507294738694e-01  -1.9755069641027986e-01  -8.2726733466860192e-01  -3.9236489325032198e-01  -1.2555004821139362e+00  -5.7393124541812224e-01  -1.6578722044528500e-02  -2.4979130151119808e-01  -4.0796273258829707e-01  -1.2488619521573378e-02  -1.8895950679089324e-01  -2.0600261563762864e-01  -6.0608576700733774e-01  -1.9809209241047329e-01  0.0000000000000000e+00  0.0000000000000000e+00  0.0000000000000000e+00  0.0000000000000000e+00  0.0000000000000000e+00  0.0000000000000000e+00  0.0000000000000000e+00  0.0000000000000000e+00  0.0000000000000000e+00  0.0000000000000000e+00  0.0000000000000000e+00  0.0000000000000000e+00  0.0000000000000000e+00  0.0000000000000000e+00  0.0000000000000000e+00  0.0000000000000000e+00  0.0000000000000000e+00  0.0000000000000000e+00  0.0000000000000000e+00  0.0000000000000000e+00  0.0000000000000000e+00  0.0000000000000000e+00  0.0000000000000000e+00  0.0000000000000000e+00  -1.2218024065332779e-01  -7.9710812034441070e-01  -9.2970082027145615e-02  -1.1078595334011760e+00  -9.0148635751444495e-01  -1.0776438120903071e+00  -4.2753656485276781e-01  -2.6666907114161897e-01  -5.3438640459604358e-01  -5.2973627497796560e-01  -3.4951227582747868e-01  -6.0625722422623307e-01  -1.7066123091804550e-01  -1.3188728449719547e+00  -1.0156971684881790e+00  -5.9810126615969716e-01  -9.3502254709474528e-02  -3.1314548413473614e-01  -9.0376608689501453e-02  -6.4703624471496968e-02  -1.8498273966576911e-01  -4.8952687070235906e-01  -2.3616495010429978e-01  -3.7242498284486747e-01  -9.3851381378875942e-01  -1.1366068436934762e+00  -1.0087805493378279e+00  -9.0925280955169696e-01  -6.4898686483252088e-02  -5.9544163938355626e-02  -2.1595326214387800e-01  -3.3194800444041178e-01  -2.7093405105857810e-01  -2.8357608703095022e-01  -9.0276455889814289e-01  -1.2177238736870581e+00  -4.6366603500076470e-01  -6.1927956519930216e-01  -4.4956003345762557e-01  -1.2958840681377017e+00  -1.2965918981784081e+00  -7.6597141109611522e-01  -4.8162930272378518e-01  -1.5472536064971290e-01  -6.0604261583163799e-01  -5.8325118057037002e-02  -4.2331730396834244e-02  -2.0668035313923963e-01  -2.9572285200308988e-02  -2.5745527334364381e-02  -2.1403627675945117e-02  -7.4014587195680126e-01  -4.5972166159444015e-02  -5.9821592735642160e-01  -5.3366651485243199e-01  -5.1706256072202646e-02  -1.3922595778270846e-01  -1.3217053355783662e-01  -4.3316643601222687e-01  -1.8477943748824530e-01  -4.3028798989814693e-01  -1.3647419126811313e+00  -1.2777471819759019e+00  -1.1752278713966746e+00  -7.3381230431917732e-01  -1.1876899941509755e+00  -1.5032830287226803e-01  -5.9029427993289245e-02  -1.1512229721516901e-01  -1.4317019193957850e-02  -7.2821024998163719e-01  -9.3693431319065407e-02  -9.3219469043434242e-02  -9.9932030526206683e-01  -1.0997468757902282e+00  -1.0693985354155300e+00  -1.2255035335961888e+00  -6.3520892490776848e-01  0.0000000000000000e+00  -1.8192394913653881e-01  -2.8192911042599822e-01  -3.1498498134552033e-01  -4.4161946082597564e-01  -4.9145915134130802e-01  -1.1754144400059650e+00  -1.5438812431442794e-01  -1.0797620168458866e+00  -1.6726720578063375e-01  -8.6757962418206547e-01  -1.0420426830440648e+00  -1.0923484579558442e+00  -5.5327821766026422e-02  -3.3965507549425217e-01  -3.2831574322879409e-01  -9.1574960334295219e-01  -6.1600083098313219e-01  -7.5712496420870856e-01  -1.7955237673721029e-02  -6.9960221270556788e-02  -5.2886795786980079e-01  -4.8813640211043058e-01  -3.1389149603217337e-01  -3.7775720212081393e-01  -5.8230337653940833e-01  -8.8800960152524741e-02  -1.0931551092171312e+00  -7.8183276197950757e-01  -5.2534907779005935e-01  -1.1766883845345986e-01  -2.8797481358532695e-01  -7.8961336131395776e-01  -1.6752070760113022e-01  -1.1490593349025495e-01  -1.9345795905328364e-01  -2.0891480597221332e-01  -4.1899875711505030e-01  -9.7203700273836724e-01  -5.9266642422997874e-02  -1.2181430250390358e-01  -3.7128307320602183e-01  -3.1151616820897332e-01  -1.0762141166592538e+00  -3.2055520409341653e-01  -2.7318428142877327e-01  -8.5296767834538451e-03  -4.3216404569277458e-02  -5.4025906265586709e-01  -7.0959035942481175e-01  -9.9689333452759121e-01  -1.1355198662408870e+00  -2.5315887140509552e-01  -2.4847593991971165e-01  -1.9257208083544447e-01  -1.6734621372206412e-01  -8.7592675936008363e-02  -5.9960855389725169e-02  -1.7357848364768707e-02  -5.9783612108851969e-02  -1.3505879865937065e+00  -1.3246004294657324e-01  -1.8309983490670190e-01  -1.6988709695889492e-01  -7.4540260205859354e-01  -3.5937646089261166e-01  0.0000000000000000e+00  -8.8538969222983432e-01  -4.6032200300706583e-01  -3.5604883957757444e-01  -1.2137381447946067e+00  -3.4281625235633917e-01  -7.3861628790727729e-01  -8.5492823843175769e-01  -1.0082836525088601e+00  -1.0189491682145222e+00  -8.9116213274107214e-01  -6.5667546985109970e-01  -1.1749637452193826e+00  -6.7703188789389315e-02  -7.9431494890117915e-01  -8.8617827148569439e-01  -1.3166938290496599e+00  -7.3997808108402208e-01  -4.8901030074825264e-01  -6.1466172096302407e-01  -4.5846467699018387e-02  -1.2233702190208458e+00  -9.8058211587184863e-01  -1.9180659514534520e-01  -2.7207017849474695e-02  -9.6167415848306001e-02  -1.0638237622688379e-01  -1.9640128805513149e-01  -2.3597211664703854e-01  -4.7598070531907699e-01  -6.3397247843594429e-01  -1.0623888857209678e+00  -1.6798835312583568e-01  -4.2929309121914372e-01  -1.3655567314193455e+00  -5.9953356413719834e-03  0.0000000000000000e+00  -4.0043862298514737e-01  0.0000000000000000e+00  -3.9060003624983373e-02  0.0000000000000000e+00  -2.9769045203745720e-01  -1.0305080305176276e-01  -7.4064664997585106e-01  -4.8542373277855289e-01  -1.0565273247875184e+00  -1.2208041341767637e+00  -1.1395794311074448e+00  -5.8340600995328795e-01  -6.5229122815983243e-01  -1.4009503617388502e-01  -1.9807104509038742e-01  -4.6080971311278945e-01  -2.6899739351734969e-01  -8.6960690838437738e-01  -3.0562798997413843e-01  -2.1147721813360373e-01  -3.3377472525511187e-01  -4.3858121197724237e-01  -1.2380781570450838e+00  -1.1678741174445528e+00  -2.6547034457996208e-02  -6.2831743394886785e-01  -1.1044466202482402e-01  -2.7092305750780726e-01  -3.9308329017783455e-01  -1.9493270599193507e-01  -3.6110688354273085e-01  -1.6949536202831211e-01  -1.1971128797488273e+00  -1.9895808417396971e-01  -3.7914385463611028e-01  -1.2255277237684872e+00  -3.4752181104637531e-01  -5.2075965564805836e-02  -8.4429192792680063e-01  -7.2822681059137018e-01  -2.3834792251613268e-01  -1.2258275578744048e-01  -2.0833615116398002e-01  -1.3947737128182366e-01  -7.3178898092219502e-01  -5.5586298399664968e-01  -3.1914574487399466e-01  -1.1582729682847983e+00  -1.2527650642059949e+00  -6.6194153113524237e-02  -4.1980004887097522e-01  -7.9319227134780579e-01  -3.2889292692637623e-01  -6.2846338952060410e-01  -5.8183681269614984e-01  -9.9343388095943186e-01  -1.0840760570129868e+00  -9.0362638658267369e-01  -5.0224438163885543e-01  -1.3646037744777082e+00  -7.2039292130202354e-02  -7.7494941243520055e-01  -9.0742142613969290e-01  -5.0618635166817783e-01  -1.5080197067501666e-01  -7.6424665837750816e-01  -8.1007473979897104e-01  -1.1770215411417739e+00  -1.1122833356087469e+00  -3.6791854929105133e-01  -2.4742747679184746e-01  -1.1488433891234928e+00  -1.2830187922492939e+00  -2.1440527081191202e-01  -1.1682616170017257e-01  -2.2421831149754823e-02  -1.2132112027714088e-01  -9.8946973325574406e-01  -1.3009222205263138e+00  -1.0162457078967146e+00  -8.3753322339825773e-03  -4.1309084053098799e-01  -2.7205323330173692e-01  -1.6820805603382308e-01  -5.4387836694506163e-02  -1.1818879126542506e-01  -1.7769740717725976e-01  -3.2033450851663203e-01  -4.4411253812768370e-01  -1.1227082754279307e+00  -8.3965677855806409e-01  -1.2452552062500373e+00  -3.4324620646961568e-01  -2.0150745903898454e-01  -4.6514199237859327e-01  -9.3497203174925558e-01  -3.9925134623894826e-01  -3.3666295459157652e-01  -5.9362334354714663e-01  -7.1443552109806852e-02  -3.4735039470068391e-01  -1.0080068425423643e+00  -1.0514459515911241e+00  -1.0936829929361447e+00  -1.0993972296640100e-01  -6.0291996432165401e-02  -2.5595372635949598e-01  -7.2171967538426196e-01  -6.1610754106101573e-01  -6.0925795483976319e-01  -9.6200223092827519e-01  -2.0559585525368565e-01  -1.8811448400415681e-01  -7.0025255778901785e-01  -3.2642320343905906e-01  -7.5944971254437454e-01  -9.2798721604616863e-01  -4.1991100868815323e-01  -5.3956085851432845e-01  -5.2260274855690858e-01  -6.8010180565998113e-01  -6.3074121082277612e-02  -1.0105305087583513e-01  -2.1912275629128439e-01  -3.2995049886790301e-01  -1.0917766349563099e-01  -8.4814122369726963e-01  -8.336041527