<?xml version="1.0"?>
<VTKFile type="UnstructuredGrid"  version="0.1"  >
<UnstructuredGrid>
<Piece  NumberOfPoints="81" NumberOfCells="128">
<Points>
<DataArray  type="Float64"  NumberOfComponents="3"  format="ascii">0 0 0  0.125 0 0  0.25 0 0  0.375 0 0  0.5 0 0  0.625 0 0  0.75 0 0  0.875 0 0  1 0 0  0 0.125 0  0.125 0.125 0  0.25 0.125 0  0.375 0.125 0  0.5 0.125 0  0.625 0.125 0  0.75 0.125 0  0.875 0.125 0  1 0.125 0  0 0.25 0  0.125 0.25 0  0.25 0.25 0  0.375 0.25 0  0.5 0.25 0  0.625 0.25 0  0.75 0.25 0  0.875 0.25 0  1 0.25 0  0 0.375 0  0.125 0.375 0  0.25 0.375 0  0.375 0.375 0  0.5 0.375 0  0.625 0.375 0  0.75 0.375 0  0.875 0.375 0  1 0.375 0  0 0.5 0  0.125 0.5 0  0.25 0.5 0  0.375 0.5 0  0.5 0.5 0  0.625 0.5 0  0.75 0.5 0  0.875 0.5 0  1 0.5 0  0 0.625 0  0.125 0.625 0  0.25 0.625 0  0.375 0.625 0  0.5 0.625 0  0.625 0.625 0  0.75 0.625 0  0.875 0.625 0  1 0.625 0  0 0.75 0  0.125 0.75 0  0.25 0.75 0  0.375 0.75 0  0.5 0.75 0  0.625 0.75 0  0.75 0.75 0  0.875 0.75 0  1 0.75 0  0 0.875 0  0.125 0.875 0  0.25 0.875 0  0.375 0.875 0  0.5 0.875 0  0.625 0.875 0  0.75 0.875 0  0.875 0.875 0  1 0.875 0  0 1 0  0.125 1 0  0.25 1 0  0.375 1 0  0.5 1 0  0.625 1 0  0.75 1 0  0.875 1 0  1 1 0  </DataArray>
</Points>
<Cells>
<DataArray  type="UInt32"  Name="connectivity"  format="ascii">0 1 10  0 9 10  1 2 11  1 10 11  2 3 12  2 11 12  3 4 13  3 12 13  4 5 14  4 13 14  5 6 15  5 14 15  6 7 16  6 15 16  7 8 17  7 16 17  9 10 19  9 18 19  10 11 20  10 19 20  11 12 21  11 20 21  12 13 22  12 21 22  13 14 23  13 22 23  14 15 24  14 23 24  15 16 25  15 24 25  16 17 26  16 25 26  18 19 28  18 27 28  19 20 29  19 28 29  20 21 30  20 29 30  21 22 31  21 30 31  22 23 32  22 31 32  23 24 33  23 32 33  24 25 34  24 33 34  25 26 35  25 34 35  27 28 37  27 36 37  28 29 38  28 37 38  29 30 39  29 38 39  30 31 40  30 39 40  31 32 41  31 40 41  32 33 42  32 41 42  33 34 43  33 42 43  34 35 44  34 43 44  36 37 46  36 45 46  37 38 47  37 46 47  38 39 48  38 47 48  39 40 49  39 48 49  40 41 50  40 49 50  41 42 51  41 50 51  42 43 52  42 51 52  43 44 53  43 52 53  45 46 55  45 54 55  46 47 56  46 55 56  47 48 57  47 56 57  48 49 58  48 57 58  49 50 59  49 58 59  50 51 60  50 59 60  51 52 61  51 60 61  52 53 62  52 61 62  54 55 64  54 63 64  55 56 65  55 64 65  56 57 66  56 65 66  57 58 67  57 66 67  58 59 68  58 67 68  59 60 69  59 68 69  60 61 70  60 69 70  61 62 71  61 70 71  63 64 73  63 72 73  64 65 74  64 73 74  65 66 75  65 74 75  66 67 76  66 75 76  67 68 77  67 76 77  68 69 78  68 77 78  69 70 79  69 78 79  70 71 80  70 79 80  </DataArray>
<DataArray  type="UInt32"  Name="offsets"  format="ascii">3 6 9 12 15 18 21 24 27 30 33 36 39 42 45 48 51 54 57 60 63 66 69 72 75 78 81 84 87 90 93 96 99 102 105 108 111 114 117 120 123 126 129 132 135 138 141 144 147 150 153 156 159 162 165 168 171 174 177 180 183 186 189 192 195 198 201 204 207 210 213 216 219 222 225 228 231 234 237 240 243 246 249 252 255 258 261 264 267 270 273 276 279 282 285 288 291 294 297 300 303 306 309 312 315 318 321 324 327 330 333 336 339 342 345 348 351 354 357 360 363 366 369 372 375 378 381 384 </DataArray>
<DataArray  type="UInt8"  Name="types"  format="ascii">5 5 5 5 5 5 5 5 5 5 5 5 5 5 5 5 5 5 5 5 5 5 5 5 5 5 5 5 5 5 5 5 5 5 5 5 5 5 5 5 5 5 5 5 5 5 5 5 5 5 5 5 5 5 5 5 5 5 5 5 5 5 5 5 5 5 5 5 5 5 5 5 5 5 5 5 5 5 5 5 5 5 5 5 5 5 5 5 5 5 5 5 5 5 5 5 5 5 5 5 5 5 5 5 5 5 5 5 5 5 5 5 5 5 5 5 5 5 5 5 5 5 5 5 5 5 5 5 </DataArray>
</Cells>
<PointData  Scalars="u"> 
<DataArray  type="Float64"  Name="u"  format="ascii">8.1999999999999993e+00  8.2156249999999993e+00  8.2624999999999993e+00  8.3406249999999993e+00  8.4499999999999993e+00  8.5906249999999993e+00  8.7624999999999993e+00  8.9656249999999993e+00  9.1999999999999993e+00  8.2468749999999993e+00  8.2509437273588819e+00  8.2891740039032040e+00  8.3610934923762095e+00  8.4666781318261606e+00  8.6063712036035547e+00  8.7812406792086879e+00  8.9933588944550511e+00  9.2468749999999993e+00  8.3874999999999993e+00  8.3813335453044093e+00  8.4119974316022770e+00  8.4788685617012174e+00  8.5818803952859124e+00  8.7217702398503150e+00  8.9003123371810702e+00  9.1206122244844661e+00  9.3874999999999993e+00  8.6218749999999993e+00  8.6061714964434390e+00  8.6303792483582988e+00  8.6933223587157649e+00  8.7946440905369343e+00  8.9351551601050350e+00  9.1170703755584945e+00  9.3441841042731308e+00  9.6218749999999993e+00  8.9499999999999993e+00  8.9259018826437746e+00  8.9452156741640501e+00  9.0055790377398228e+00  9.1059921451898500e+00  9.2471162460766720e+00  9.4314670026102831e+00  9.6635831891224520e+00  9.9499999999999993e+00  9.3718749999999993e+00  9.3420378607099330e+00  9.3591292429310542e+00  9.4188621797607883e+00  9.5192810444203939e+00  9.6607159464509671e+00  9.8458555766195772e+00  1.0080082923748225e+01  1.0371874999999999e+01  9.8874999999999993e+00  9.8575913382925329e+00  9.8770195210901690e+00  9.9390141765984517e+00  1.0040680818148140e+01  1.0181951920937626e+01  1.0365397116362866e+01  1.0596931614048920e+01  1.0887499999999999e+01  1.0496874999999999e+01  1.0478247181448298e+01  1.0507085747102332e+01  1.0575203500746110e+01  1.0679772331602498e+01  1.0820515779996351e+01  1.0999216264600575e+01  1.1220733439183817e+01  1.1496874999999999e+01  1.1199999999999999e+01  1.1215624999999999e+01  1.1262499999999999e+01  1.1340624999999999e+01  1.1449999999999999e+01  1.1590624999999999e+01  1.1762499999999999e+01  1.1965624999999999e+01  1.2199999999999999e+01  </DataArray> 
</PointData> 
</Piece>
</UnstructuredGrid>
</VTKFile>