<?xml version="1.0"?>
<VTKFile type="UnstructuredGrid"  version="0.1"  >
<UnstructuredGrid>
<Piece  NumberOfPoints="81" NumberOfCells="128">
<Points>
<DataArray  type="Float64"  NumberOfComponents="3"  format="ascii">0 0 0  0.125 0 0  0.25 0 0  0.375 0 0  0.5 0 0  0.625 0 0  0.75 0 0  0.875 0 0  1 0 0  0 0.125 0  0.125 0.125 0  0.25 0.125 0  0.375 0.125 0  0.5 0.125 0  0.625 0.125 0  0.75 0.125 0  0.875 0.125 0  1 0.125 0  0 0.25 0  0.125 0.25 0  0.25 0.25 0  0.375 0.25 0  0.5 0.25 0  0.625 0.25 0  0.75 0.25 0  0.875 0.25 0  1 0.25 0  0 0.375 0  0.125 0.375 0  0.25 0.375 0  0.375 0.375 0  0.5 0.375 0  0.625 0.375 0  0.75 0.375 0  0.875 0.375 0  1 0.375 0  0 0.5 0  0.125 0.5 0  0.25 0.5 0  0.375 0.5 0  0.5 0.5 0  0.625 0.5 0  0.75 0.5 0  0.875 0.5 0  1 0.5 0  0 0.625 0  0.125 0.625 0  0.25 0.625 0  0.375 0.625 0  0.5 0.625 0  0.625 0.625 0  0.75 0.625 0  0.875 0.625 0  1 0.625 0  0 0.75 0  0.125 0.75 0  0.25 0.75 0  0.375 0.75 0  0.5 0.75 0  0.625 0.75 0  0.75 0.75 0  0.875 0.75 0  1 0.75 0  0 0.875 0  0.125 0.875 0  0.25 0.875 0  0.375 0.875 0  0.5 0.875 0  0.625 0.875 0  0.75 0.875 0  0.875 0.875 0  1 0.875 0  0 1 0  0.125 1 0  0.25 1 0  0.375 1 0  0.5 1 0  0.625 1 0  0.75 1 0  0.875 1 0  1 1 0  </DataArray>
</Points>
<Cells>
<DataArray  type="UInt32"  Name="connectivity"  format="ascii">0 1 10  0 9 10  1 2 11  1 10 11  2 3 12  2 11 12  3 4 13  3 12 13  4 5 14  4 13 14  5 6 15  5 14 15  6 7 16  6 15 16  7 8 17  7 16 17  9 10 19  9 18 19  10 11 20  10 19 20  11 12 21  11 20 21  12 13 22  12 21 22  13 14 23  13 22 23  14 15 24  14 23 24  15 16 25  15 24 25  16 17 26  16 25 26  18 19 28  18 27 28  19 20 29  19 28 29  20 21 30  20 29 30  21 22 31  21 30 31  22 23 32  22 31 32  23 24 33  23 32 33  24 25 34  24 33 34  25 26 35  25 34 35  27 28 37  27 36 37  28 29 38  28 37 38  29 30 39  29 38 39  30 31 40  30 39 40  31 32 41  31 40 41  32 33 42  32 41 42  33 34 43  33 42 43  34 35 44  34 43 44  36 37 46  36 45 46  37 38 47  37 46 47  38 39 48  38 47 48  39 40 49  39 48 49  40 41 50  40 49 50  41 42 51  41 50 51  42 43 52  42 51 52  43 44 53  43 52 53  45 46 55  45 54 55  46 47 56  46 55 56  47 48 57  47 56 57  48 49 58  48 57 58  49 50 59  49 58 59  50 51 60  50 59 60  51 52 61  51 60 61  52 53 62  52 61 62  54 55 64  54 63 64  55 56 65  55 64 65  56 57 66  56 65 66  57 58 67  57 66 67  58 59 68  58 67 68  59 60 69  59 68 69  60 61 70  60 69 70  61 62 71  61 70 71  63 64 73  63 72 73  64 65 74  64 73 74  65 66 75  65 74 75  66 67 76  66 75 76  67 68 77  67 76 77  68 69 78  68 77 78  69 70 79  69 78 79  70 71 80  70 79 80  </DataArray>
<DataArray  type="UInt32"  Name="offsets"  format="ascii">3 6 9 12 15 18 21 24 27 30 33 36 39 42 45 48 51 54 57 60 63 66 69 72 75 78 81 84 87 90 93 96 99 102 105 108 111 114 117 120 123 126 129 132 135 138 141 144 147 150 153 156 159 162 165 168 171 174 177 180 183 186 189 192 195 198 201 204 207 210 213 216 219 222 225 228 231 234 237 240 243 246 249 252 255 258 261 264 267 270 273 276 279 282 285 288 291 294 297 300 303 306 309 312 315 318 321 324 327 330 333 336 339 342 345 348 351 354 357 360 363 366 369 372 375 378 381 384 </DataArray>
<DataArray  type="UInt8"  Name="types"  format="ascii">5 5 5 5 5 5 5 5 5 5 5 5 5 5 5 5 5 5 5 5 5 5 5 5 5 5 5 5 5 5 5 5 5 5 5 5 5 5 5 5 5 5 5 5 5 5 5 5 5 5 5 5 5 5 5 5 5 5 5 5 5 5 5 5 5 5 5 5 5 5 5 5 5 5 5 5 5 5 5 5 5 5 5 5 5 5 5 5 5 5 5 5 5 5 5 5 5 5 5 5 5 5 5 5 5 5 5 5 5 5 5 5 5 5 5 5 5 5 5 5 5 5 5 5 5 5 5 5 </DataArray>
</Cells>
<PointData  Scalars="u"> 
<DataArray  type="Float64"  Name="u"  format="ascii">1.3000000000000000e+01  1.3015625000000000e+01  1.3062500000000000e+01  1.3140625000000000e+01  1.3250000000000000e+01  1.3390625000000000e+01  1.3562500000000000e+01  1.3765625000000000e+01  1.4000000000000000e+01  1.3046875000000000e+01  1.2968500967832279e+01  1.2961166255973325e+01  1.3009684651483097e+01  1.3108007537402834e+01  1.3254900378394069e+01  1.3453120096977635e+01  1.3710793276150168e+01  1.4046875000000000e+01  1.3187500000000000e+01  1.3053325797374530e+01  1.3006925930055653e+01  1.3032697481690994e+01  1.3122785711531371e+01  1.3275533534432244e+01  1.3495126782404155e+01  1.3792491642253415e+01  1.4187500000000000e+01  1.3421875000000000e+01  1.3254762655550330e+01  1.3184208168348080e+01  1.3195524818631842e+01  1.3280477774548341e+01  1.3437318888022407e+01  1.3670833670140418e+01  1.3992713279063647e+01  1.4421875000000000e+01  1.3750000000000000e+01  1.3567231288220446e+01  1.3486120990409514e+01  1.3491412721751232e+01  1.3574326562872489e+01  1.3732949930088076e+01  1.3972372318855745e+01  1.4304912594699125e+01  1.4750000000000000e+01  1.4171875000000000e+01  1.3990567035500446e+01  1.3912892537512977e+01  1.3921025907678160e+01  1.4005114728431797e+01  1.4162918406367039e+01  1.4399684496609357e+01  1.4728674082855118e+01  1.5171875000000000e+01  1.4687500000000000e+01  1.4529470756061478e+01  1.4471833966313255e+01  1.4492777471180380e+01  1.4581586134393605e+01  1.4735780840927410e+01  1.4960325614816245e+01  1.5268923866119039e+01  1.5687500000000000e+01  1.5296875000000000e+01  1.5195681563143413e+01  1.5178965164871283e+01  1.5223732675536629e+01  1.5321101737179175e+01  1.5469106939103241e+01  1.5671208516670699e+01  1.5938290679657218e+01  1.6296875000000000e+01  1.6000000000000000e+01  1.6015625000000000e+01  1.6062500000000000e+01  1.6140625000000000e+01  1.6250000000000000e+01  1.6390625000000000e+01  1.6562500000000000e+01  1.6765625000000000e+01  1.7000000000000000e+01  </DataArray> 
</PointData> 
</Piece>
</UnstructuredGrid>
</VTKFile>