<?xml version="1.0"?>
<VTKFile type="UnstructuredGrid"  version="0.1"  >
<UnstructuredGrid>
<Piece  NumberOfPoints="15681" NumberOfCells="30848">
<Points>
<DataArray  type="Float64"  NumberOfComponents="3"  format="ascii">0 1 0  0 0 0  1 0 0  1 1 0  0.5 0 0  1 0.5 0  0.5 1 0  0 0.5 0  0.5 0.5 0  0 0.25 0  0.25 0 0  0.25 1 0  0 0.75 0  1 0.25 0  0.75 0 0  1 0.75 0  0.75 1 0  0.7083333333333333 0.2916666666666667 0  0.2916666666666666 0.7083333333333334 0  0.375 0.25 0  0.75 0.625 0  0.2569444444444444 0.4652777777777778 0  0.5366379310344828 0.7535919540229885 0  0.1875 0.1875 0  0.8125 0.8125 0  0.869047619047619 0.375 0  0.1450441919191919 0.6052714646464646 0  0.375 0.8690476190476191 0  0.5526960784313725 0.1825980392156862 0  0.8385416666666666 0.1614583333333334 0  0.1614583333333333 0.8385416666666667 0  0.6736111111111112 0.4652777777777778 0  0.1367521367521368 0.3477564102564102 0  0.6570970491253563 0.8648656830417855 0  0.5102479397556124 0.3386260301221938 0  0.3654513888888889 0.5737847222222222 0  0.6929750044954185 0.1362784921584263 0  0.388576102743835 0.411911725237599 0  0.6091269841269842 0.5942460317460317 0  0.875 0.6875 0  0.427278890279516 0.119889445139758 0  0.8544456845238095 0.5213913690476191 0  0.125 0 0  0 0.125 0  1 0.875 0  0.875 1 0  0.1280008648150532 0.4769292340226777 0  0.2695382451711197 0.3321750950221553 0  0.7031567235715964 0.7447810921428012 0  0.625 0 0  0.375 0 0  0.125 1 0  0.875 0 0  0 0.375 0  0 0.625 0  1 0.375 0  0.375 1 0  1 0.125 0  0 0.875 0  0.625 1 0  1 0.625 0  0.2979288363930608 0.1201429454643536 0  0.410919540229885 0.7484605911330049 0  0.5325041980395562 0.878905151526474 0  0.4831670727569156 0.6331060043826487 0  0.1735997378973042 0.7204747378973043 0  0.2534919507575758 0.5772372159090909 0  0.2633928571428572 0.8876488095238095 0  0.8199404761904761 0.2730654761904762 0  0.75830270586982 0.3919383189517417 0  0.5750282248382511 0.4237522353023667 0  0.6008360210023379 0.2794828358598495 0  0.08163442644334186 0.6821295860397322 0  0.08333333333333333 0.1875 0  0.2028380815996574 0.08844602719988583 0  0.2766521142611967 0.2325436572164097 0  0.90625 0.78125 0  0.890625 0.890625 0  0.7545696325008384 0.8973565441669461 0  0.5625 0.08086590340834317 0  0.09077380952380953 0.09077380952380952 0  0.4610923478694773 0.209034015149656 0  0.7542527598351648 0.5248380520595106 0  0.6459235536037465 0.3619913988405765 0  0.7560381768882634 0.20506142233852 0  0.07073252688172042 0.8125 0  0.0924753097241701 0.9078102849914793 0  0.9292674731182795 0.1875 0  0.9075246902758297 0.09218971500852073 0  0.8125 0.07073252688172045 0  0.2400955776842301 0.7869705776842302 0  0.9121050213379069 0.2781978201831695 0  0.7916878157143976 0.7239689078571988 0  0.9345238095238094 0.4375 0  0.4375 0.9345238095238095 0  0.3725616989755203 0.6651895248862173 0  0.06536271996350887 0.5625 0  0.9348362560379583 0.5625 0  0.456646798987055 0.8277247094351965 0  0.1875 0.9355758238725954 0  0.6169761231634859 0.6939779188977889 0  0.6226854751147515 0.7827911461419014 0  0.3305695598137626 0.7901697871282585 0  0.5865305325818898 0.5101085479043448 0  0.6622701297028378 0.2177663989757395 0  0.1354166666666667 0.2591702279202279 0  0 0.3125 0  0.2094429575680048 0.3936361846162499 0  0.836666296419157 0.607917407161686 0  0.6875 1 0  0.214261555450504 0.6492551722020035 0  0 0.4375 0  0.07731537126068377 0.40625 0  0.3427725432967068 0.4879566233699599 0  0.3550792513951871 0.3331953632609953 0  0.4462473953896857 0.2887834789342508 0  0.4747801464819794 0.417386052030127 0  0.8229836475148948 0.4443292349237342 0  0.7322605135514757 0.8199240278289671 0  0.6756431877205955 0.5468989748126787 0  0.1968419507215863 0.5194573482612496 0  0.3285590277777778 0.9345238095238095 0  0.8125 1 0  0.4198917601920009 0.5134893045331258 0  0.5232405503206691 0.2595791787880157 0  1 0.9375 0  0.1987510870015086 0.3025185951894431 0  0.5625 1 0  0.6005390654136388 0.9228110509230952 0  0.6411254848194414 0.07704872765442942 0  0.3357233162523242 0.1855113224530532 0  0.6730653396610877 0.6393887462324165 0  0.310966987234063 0.6240019765311626 0  0.7368737836204349 0.07457755202327881 0  0.6192316414418171 0.1485238406378594 0  0.5432429670607106 0.678552703844006 0  0.4754371679695679 0.7103946803120881 0  0.07501324890749672 0.3043839897335739 0  0.5358146975860403 0.5688321463205916 0  0.3115271739500156 0.3982137365971444 0  0.3625191397122174 0.0767854603650549 0  0.5024029442563831 0.1264128223758444 0  0.4375 0 0  0.4699946908887376 0.06379961173775725 0  0.9375 0.71875 0  0.9272105898044465 0.635671179608893 0  0.9375 1 0  0.6690971819568612 0.9331530898202766 0  0.1073454944778885 0.7499206387638554 0  0.8699082999280406 0.2232403652524313 0  0.5773118091863964 0.3548027349159383 0  0.1354166666666667 0.1428571428571428 0  0.3125 0 0  0.8241684193077341 0.9257452995055244 0  0.4352314948354036 0.3586940847489378 0  0.4351301473778832 0.5819726043539077 0  0.8073232928518163 0.3419398170341962 0  0.7775949246947366 0.1298519409204575 0  0.6875 0 0  0.7413513991851041 0.457933324954483 0  0.939453125 0.841796875 0  0.5630355154606987 0.8171875156478349 0  0.9345238095238095 0.3461466592368577 0  0.9375 0 0  1 0.0625 0  0.0625 1 0  0 0.9375 0  0.06552178593177167 0.4969053669623468 0  0.1424866619031703 0.4130277709291224 0  0.1275287182444726 0.5422946908002588 0  0.2637686595586339 0.06413888464529549 0  0.2524263535491086 0.1697437503243817 0  0.7367218397988525 0.6888573970660841 0  0.0625 0 0  0 0.0625 0  0.8463594539285995 0.7578283617857982 0  0.3128751192101563 0.2851997374369947 0  0.4015281788351144 0.1806421385113692 0  0.1910251795116588 0.4553332197174453 0  0.287797471442006 0.5222621440543902 0  0.3962628745986055 0.8097380085535307 0  0.3505895299554843 0.7304878890838692 0  0.5019151500495276 0.9356042615328103 0  0.9374389419410134 0.4999931039076005 0  0.3125 1 0  0.1875 1 0  1 0.5625 0  0.4375 1 0  1 0.3125 0  1 0.4375 0  0.8125 0 0  1 0.1875 0  0.5625 0 0  0.1875 0 0  0 0.1875 0  0 0.5625 0  0 0.6875 0  0 0.8125 0  1 0.6875 0  1 0.8125 0  0.8021696218581627 0.6612893947866073 0  0.06154922295426143 0.6239401126946708 0  0.9359375 0.9359375 0  0.4666158024849896 0.7691515918155014 0  0.2318201265217025 0.7064974250277525 0  0.1565954253579966 0.6635489312486841 0  0.1598132503680848 0.7787147500325552 0  0.3146529991605639 0.8510876378205265 0  0.1461873209418733 0.05982804528877814 0  0.06109554988524315 0.2446551776247686 0  0.8054950308560754 0.5564226538848541 0  0.470541749491976 0.8853316336952531 0  0.6948472567465137 0.4042308563372457 0  0.8802828472348889 0.4658893256343853 0  0.6788075634946739 0.7974194205806069 0  0.2155048659603867 0.2428201584940968 0  0.8131223143423806 0.2132171049028394 0  0.4330798005432235 0.6671274900735726 0  0.6015279126162613 0.2187368078743274 0  0.8061636571464289 0.8703766630361714 0  0.7008230445061776 0.3478568388444072 0  0.8638466246958771 0.3147095987735538 0  0.204801534004265 0.8789209409594009 0  0.2449006736431132 0.9424182882803838 0  0.7611268409371427 0.2643056884799992 0  0.7552800864046191 0.7678006649959446 0  0.5983639638906616 0.864113435029236 0  0.1956559506814437 0.577281203577426 0  0.3527670268164207 0.1320469097565204 0  0.7530364577483248 0.3262386077083089 0  0.4535919187979363 0.4690107087451527 0  0.8824869791666666 0.8336588541666666 0  0.8814453125 0.9451171875 0  0.5582987942628019 0.622421666543858 0  0.6817532446064828 0.6939001801354731 0  0.3830295138888889 0.9450968952922078 0  0.4140603937012541 0.05211333372716105 0  0.5535864501303013 0.3060591985391672 0  0.6560130086346878 0.2729726562211558 0  0.890203140221684 0.5948314305427268 0  0.7043857725999024 0.593980890020804 0  0.5105843922695152 0.8016828014338627 0  0.05365910753708378 0.7315110031682004 0  0.616904573672261 0.4621186633436136 0  0.5338511646455415 0.387875898899613 0  0.5231769258947843 0.4477682463140762 0  0.650302973237622 0.7370722302085519 0  0.3927483139621257 0.4662414504529014 0  0.8034595960585199 0.4972538342758211 0  0.7738337841682438 0.9496376207663251 0  0.7193737507158268 0.954685447650112 0  0.482525916480686 0.5528257169991676 0  0.2533501157346781 0.2809495420003238 0  0.3118487924482243 0.5702930126570319 0  0.6257598847669529 0.4104163315430518 0  0.1354166666666667 0.1955605158730158 0  0.04166666666666666 0.15625 0  0.3956448985530264 0.6174149462065157 0  0.8102897701818546 0.3938784238208349 0  0.2641154190013625 0.8344469561943118 0  0.642852220770013 0.5068794586563659 0  0.05271458179508221 0.355846947336007 0  0.7021551360070266 0.8921457280225779 0  0.5692125776683765 0.1328512638850284 0  0.5206162811937602 0.04865158770992991 0  0.6001838442201555 0.04540556991297563 0  0.2597716608242787 0.4118346398477178 0  0.4040584599473195 0.3179589136784675 0  0.1480337679295207 0.8941560631483065 0  0.1344356707112281 0.9466251177415842 0  0.7114696411829317 0.4983917389078826 0  0.7585704698442475 0.5751926345944629 0  0.2189131956390871 0.04022068508159698 0  0.2476935455192043 0.1123642267635843 0  0.185995005654517 0.1365524537205238 0  0.6223414373308711 0.643380839165121 0  0.5732602596637543 0.7190051747306219 0  0.268358222364537 0.6586246524467934 0  0.3265879848129173 0.2369791782191225 0  0.1267095595787346 0.7034787238999181 0  0.1115202922226038 0.6421997933884982 0  0.3128688392940203 0.07260997451790079 0  0.550724900485678 0.9253360991633187 0  0.7142608810459105 0.2384904702214873 0  0.7045869185243887 0.1871826897887429 0  0.890625 0.734375 0  0.953125 0.765625 0  0.2111812642821677 0.8286209446459138 0  0.9590293078204457 0.09375 0  0.953431269039847 0.1435719386408004 0  0.04097069217955424 0.90625 0  0.04656873096015299 0.8564280613591996 0  0.1078743037981226 0.8541621766048062 0  0.8921256962018773 0.1458378233951939 0  0.8521576979194619 0.1084496634207678 0  0.8655663982740958 0.05464346096571447 0  0.04005659640905543 0.09375 0  0.1001448316533417 0.0424677624422826
[...]
<PointData  Scalars="f_76639"> 
<DataArray  type="Float64"  Name="f_76639"  format="ascii">1.2369331995613619e-01  1.2369331995613642e-01  1.2369331995613619e-01  1.2369331995613597e-01  1.2369331995613664e-01  1.2369331995613686e-01  1.2369331995613686e-01  1.2369331995613664e-01  1.3382165524401596e-01  1.1236933199561365e+00  1.1236933199561365e+00  1.1236933199561365e+00  -8.7630668004386358e-01  1.1236933199561365e+00  -8.7630668004386358e-01  -8.7630668004386358e-01  -8.7630668004386358e-01  1.3130743215575993e-01  1.3132176669408768e-01  -5.7562259149164552e-01  8.3834686164516836e-01  -8.5253819055779512e-01  1.1000853703297924e+00  8.3564019075376983e-01  -5.7875342281381847e-01  1.1282434452334160e+00  -8.7097852890771466e-01  1.1279579456815254e+00  -8.6546633790518723e-01  1.2765026595827098e-01  1.2763704411837498e-01  8.9901949037062390e-01  2.2601364210024316e-01  -8.8529842754186197e-03  -6.8025109044596599e-01  -2.3940591871682787e-01  -7.4996129815413959e-01  -8.1685218498299295e-01  1.0902685681988649e+00  -2.5437143582597005e-01  -1.6340806808720645e-01  8.3260523713886980e-01  8.3080010114268388e-01  8.3080010114268388e-01  -5.8341346123041204e-01  -5.8341346123041204e-01  -4.8371089474241824e-01  -4.6505708268790896e-01  4.5228843830153592e-01  -5.8341346123041105e-01  8.3080010114268388e-01  8.3080010114268388e-01  -5.8341346123041127e-01  8.3080010114268388e-01  -5.8341346123041105e-01  8.3080010114268477e-01  8.3080010114268477e-01  8.3080010114268388e-01  -5.8341346123041127e-01  -5.8341346123041149e-01  -5.8341346123041149e-01  6.2041919639742771e-01  9.7376994367406944e-01  6.5682812168002402e-01  8.0038636544851360e-01  -4.8829683344689223e-01  -7.4221578744639516e-01  9.4068063723022244e-01  6.8111128701210344e-01  9.4138132116846618e-01  1.2582073128007804e-01  -5.5117167759422669e-01  -8.6936498565288800e-01  1.1175422699311779e+00  1.0931076151983290e+00  7.2628080753813551e-02  -7.9708471307379336e-01  -8.5497488820876488e-01  -6.8880654132395758e-01  -6.5653714893547077e-01  1.0345712102580693e+00  -7.4579365384173013e-01  1.1148796159154160e+00  1.8233506975029873e-01  -1.1246425526194642e-01  -5.4360108315340083e-01  1.2729658955393230e-01  7.9564908942768808e-01  1.2371061891852865e-01  -5.4355199354108319e-01  2.9884654517798603e-01  1.0576211383574921e+00  3.1654714449852184e-02  8.4683435724941303e-01  8.4702446795752528e-01  3.6755112213706370e-01  -5.9330023889941896e-01  1.4327912217506428e-01  1.1069157357131201e+00  8.2458471720687665e-01  1.0598197592038785e+00  6.9038183962841848e-01  8.1838446855345548e-01  7.0419257743443719e-01  -5.5383656625318278e-01  7.4336394855051258e-01  1.0475728524674230e+00  -4.7258403146225214e-01  4.7092308029114499e-01  -8.0018621255514999e-01  -6.2547652329552916e-01  5.0637675232122625e-01  2.3014039562576569e-01  -7.4133842183228826e-01  -7.9295661901157621e-01  -8.6328051859148447e-01  -4.9322703304434318e-01  1.1245036411965597e+00  -1.9275895796786602e-01  1.1179203377914135e+00  -8.4674425197680214e-01  1.1231190853339117e+00  -8.0018621255515032e-01  -2.7295146220294747e-01  -8.4687639546805482e-01  -2.5899011240895420e-01  1.2206625397271170e-01  -2.5899011240895342e-01  -1.9207609808844936e-02  -8.5299977335857347e-01  -3.0301560300899266e-03  1.0562753746906171e+00  -2.6504535529856982e-01  -7.9971501199458261e-01  -8.6433326639409436e-01  1.1172510397962565e+00  1.0520209806224143e+00  8.1403245162040916e-01  7.4480756299009021e-01  -8.3566208463788638e-01  4.9913965915398723e-01  -5.9510505098675692e-01  5.0637675232122625e-01  -8.4126056801099358e-02  -7.0543301022346050e-01  -2.5812227431735013e-01  -2.5899011240895420e-01  -4.7267255278039572e-01  -6.5415559200524431e-01  6.8013955413539495e-01  -2.8073240106188696e-01  1.1113323050805768e+00  1.0475728524674230e+00  -8.7422563475015813e-01  -8.2892226200116803e-01  2.4071621478616914e-01  9.3650647729036984e-01  -4.2140330758741656e-01  -8.0018621255515010e-01  1.0817424161077502e+00  -8.5540305116591464e-01  8.1382753700984611e-01  1.1079098357751280e+00  -2.5899011240895398e-01  5.0637675232122648e-01  5.0637675232122648e-01  -2.5899011240895398e-01  -2.5558035445781541e-01  -2.1255703335242193e-01  -7.4727807156110604e-01  1.0088478500181643e+00  5.9878597311069315e-01  5.8178901369061764e-01  5.0637675232122625e-01  5.0637675232122625e-01  -4.8037683245252888e-01  -4.4635238094319341e-01  -3.6327369015209110e-01  -6.6483433861506525e-01  -7.9734551473832793e-01  1.0924465561390835e+00  6.1933605606693998e-01  5.0907646335633994e-01  5.0965700701509242e-01  1.0475728524674230e+00  1.0475728524674230e+00  -2.5899011240895342e-01  5.0637675232122692e-01  1.0475728524674230e+00  5.0637675232122692e-01  -8.0018621255515021e-01  1.0475728524674230e+00  -2.5899011240895320e-01  1.0475728524674230e+00  1.0475728524674230e+00  -2.5899011240895320e-01  -8.0018621255515010e-01  -8.0018621255515021e-01  -8.0018621255514999e-01  -8.0018621255515032e-01  3.5782144247416414e-01  -7.9270497077278834e-01  -5.9625343691496713e-01  1.1274399459661393e+00  -2.4741574553902196e-01  -7.7510604240695413e-01  -2.4829034523780980e-01  9.9225233861529294e-01  1.0873030276834448e+00  1.0653755351077663e+00  8.9345508526659023e-01  9.1525582298262931e-01  7.1549467456204163e-01  9.5143846144631394e-01  2.7894818654415160e-01  3.8853276438490925e-01  2.9355108035862904e-01  7.2163285986829906e-01  -7.7291836342339926e-01  -7.6800875912529143e-01  4.3308669454107929e-01  1.0295620535626431e+00  6.2954562277985759e-01  1.0495469199256049e+00  2.8942214263814331e-01  -1.4651095642079993e-02  3.6255832281228229e-01  -8.5904608120101666e-01  2.2403905007486588e-01  6.0888080237918518e-01  -3.3353869045450402e-01  -8.5059744246943325e-01  -7.6159879444967338e-01  1.0401339255883397e+00  8.3594442724115137e-01  1.0080953871756508e+00  3.3701796887070828e-01  -6.3919024200525409e-01  -3.0004657379570265e-01  2.2200767665540508e-01  1.0863414162394376e+00  1.0551246149714073e+00  -8.5013759885081941e-01  6.0975286104962312e-01  -3.3887138140429185e-01  -4.7777526383650397e-02  7.8160692040080437e-01  -6.4111565721473263e-01  1.0802650068366633e+00  -8.6062380715867726e-01  -7.6292806700407401e-01  3.5403345859005780e-01  -8.3148210896518485e-02  -5.4206353482835212e-01  3.5849737682599686e-01  1.0012144423825662e+00  1.0717665247034383e+00  2.1505438482412764e-01  1.0891978128789359e+00  7.0948675236992298e-01  9.4125121755652952e-01  6.6946328780889852e-01  -4.3087734829170643e-01  -8.2582097848718850e-01  -2.9561191051465618e-01  -6.6681603051337479e-01  -7.4931415719027794e-01  -8.5200157533723941e-01  3.8852497401700892e-01  6.1289393307992468e-01  1.1006292885228464e+00  9.9605339636580326e-01  1.1235321690024929e+00  8.9757390242190127e-01  1.0253308570800483e+00  1.1278247338746956e+00  1.0970639726810381e+00  -3.1146686530968554e-01  -2.5797107505173367e-01  -7.4719692945610960e-01  -8.7170312134709160e-01  7.8579986136732305e-01  2.7676089697206374e-01  -1.6196625971552522e-01  -4.9907801645935124e-01  -5.7947117876508070e-01  -8.5540824417556049e-01  3.7600791177039400e-01  4.5023775960311474e-01  6.9763501018276375e-01  -2.0096980211660870e-01  -4.4739567605851666e-01  -1.0975719865498174e-01  3.6278665855727199e-01  -1.1853883748704565e-01  -3.5544328489317223e-01  8.6980268902143854e-01  9.0560468490369461e-01  2.7938428552228989e-02  3.9089123813148485e-01  1.0609778957095812e+00  6.6529819706299731e-01  -8.5893042899797523e-01  -7.7282294863923362e-01  -5.0689292570881972e-01  -6.4925330546703230e-01  -3.9481142365591948e-01  1.1328499431439718e+00  -8.6640177087323011e-01  1.1147627765700530e+00  1.0451064522898266e+00  -7.9071710134013751e-01  -7.9009050332163044e-01  1.1250629063490236e+00  -7.1227757688694482e-01  -1.1580897469800436e-01  4.2366666392337254e-01  -2.3344031508357052e-01  5.1209959715381552e-02  -7.4232947820463857e-01  9.9064838508566044e-01  -5.0937603173590795e-01  -9.5600926191905883e-02  7.0853005325012564e-01  2.6384382147061541e-01  8.8330711853278954e-01  8.1852193087374270e-01  1.0611658879293453e+00  9.5216368225649017e-01  -1.1855891414035455e-01  9.5172430352884041e-01  1.0436665562356668e+00  -8.3253073214604123e-01  -8.6845957990583922e-01  -4.6883403505118042e-02  -2.9256050055633048e-01  9.3460149274964521e-01  -8.1223630956725551e-02  9.1017425969642973e-01  1.0424126250666785e+00  5.1643939450810739e-01  -7.9766800824407069e-01  -2.6571698993754217e-01  -2.4973067725082690e-01  5.5004102512620856e-01  -8.5600452122759507e-01  -8.0467450092021475e-01  2.6035904338897742e-02  -5.4122548171099261e-01  -8.7465922172157928e-01  -5.7579799575730828e-01  3.9715726430873022e-01  3.4344986001177336e-01  1.1253926333224804e+00  -5.7213415596102390e-01  7.4469358174535039e-01  1.0005985769033570e+00  5.8052336122589177e-01  -7.9901308351759626e-01  1.2454584253044235e-01  1.2543605734185173e-01  5.2504355720147822e-01  1.2544161485745289e-01  1.2419700314453813e-01  -2.7622942404727552e-01  6.4266780387240563e-01  7.2931244880976087e-01  -8.4454752489743679e-01  -7.9979938215732893e-01  -6.9437866063855352e-02  5.2241138630981088e-01  -5.7738171449622377e-01  -8.5401273195545480e-01  1.1314644736730790e+00  -6.3250732933815967e-01  1.1249790140614926e+00  -6.7233063662493198e-01  -2.4969449706908955e-01  -5.3593969091091731e-01  -6.4088616711570567e-01  -6.6162652305783043e-01  -8.6653692996994980e-01  6.7773450235681998e-01  1.1210795053255118e+00  9.1299337118620261e-01  5.1525598885756263e-01  1.0917447331333812e+00  -6.9253786736923492e-02  2.4075241304175907e-01  -8.5527099756512925e-01  -8.6483836963557781e-01  -8.2494543032817125e-01  1.1171304258618981e+00  3.6440098613271055e-01  -8.6395555123499268e-01  -7.2076457618748402e-01  9.1636403549998713e-01  -4.4705365204448994e-01  1.1249927077933408e+00  5.4138862366577689e-01  1.1004923237912010e+00  1.1275659176705721e+00  8.4397749502286112e-01  1.0240586442033777e+00  -3.6577868003012065e-01  -6.0785359425929897e-01  -2.3320818119842690e-01  -7.1397002059992332e-02  -5.7196924753101142e-01  -8.1334450008975745e-01  4.2968322185065966e-01  1.1281188123661468e+00  4.5583905223295729e-01  -5.0472696045989618e-01  -7.2753637357228751e-01  1.1044786003593670e+00  8.8540114703475070e-01  -5.6760463184823091e-02  -1.9921122850315506e-01  1.1057045727173860e+00  -8.2736042505089380e-01  -7.8135029772867226e-01  2.6761772788653926e-01  3.8683014471124905e-03  -7.0561435353255486e-01  -8.5773193668725334e-01  5.3155131396224894e-02  9.3608274640582556e-01  8.6690035681248345e-01  -3.3882165902028116e-01  1.2974788908355320e-01  1.1044786003593670e+00  4.7298388529630009e-01  5.4576526076444543e-01  1.0942070600654774e+00  1.0336535805008404e+00  -5.2009929975650493e-01  6.8281183711574212e-01  -4.6442954414398113e-01  9.9162022910152914e-01  9.1928938506004876e-01  -8.6167521850366313e-01  -8.7145697729846860e-01  -7.6566388589247947e-01  -7.1499047403188365e-01  -5.5120030361957240e-01  -6.9176559945624561e-01  1.0343200880241299e+00  -7.4335511932236942e-01  1.4686855624323164e-01  -4.3187691306346576e-01  9.1689657973328453e-01  2.0762940209294678e-01  3.2454350051884495e-01  -3.3848743818709370e-01  -8.7317584273191029e-01  1.1240094924527135e+00  6.7926355297573859e-01  3.8962769983529660e-01  6.6363679199076556e-02  9.0039341992455291e-01  -5.7751632313290469e-01  -5.2557999510663944e-01  -8.4637530078930900e-01  1.1115765594311160e+00  -2.2257226184020493e-01  -7.0777629234640904e-01  -6.1332231444467722e-01  -7.9403324740632719e-01  -6.5812255957939647e-01  -3.1880459034098563e-01  3.1049549425087963e-01  -3.0761152773495676e-01  -7.8130713748102165e-01  1.1265326794849793e+00  1.1315136286808656e+00  9.9961876697866747e-01  1.1233978799425319e+00  9.5516293225868176e-01  -8.6317080113206757e-01  -8.2980260128050132e-01  8.8770602887078731e-01  -8.1883942997262438e-01  -7.0777629234640871e-01  -8.6977641037039943e-01  8.9823065268831090e-03  -8.5632742868655154e-01  8.2939524839424061e-01  6.7449057128301615e-01  -5.3703524682034953e-01  5.9483113949716448e-02  2.4792286293246427e-01  4.0217477408646653e-02  9.5516293225868198e-01  -6.1395823984884260e-02  1.1311861013222804e+00  -4.5914213931518499e-01  -7.3239688067163944e-01  -7.6498943217978088e-01  3.7626008514730885e-01  6.5357938374363356e-01  -2.4062223287662890e-01  9.5516293225868176e-01  1.1044786003593670e+00  9.9464560854933481e-01  8.1485761831470416e-01  5.9144340022135711e-01  -8.1040346847899147e-01  -5.6567715209120506e-01  7.2734113103739517e-01  -8.6871228075201423e-01  -1.4302200336743878e-01  8.3065321960038796e-01  -4.7928371856147378e-01  1.1304711031699699e+00  -8.5709196044709390e-01  5.9215257558993740e-02  8.9392259314514821e-01  1.0116373924953432e+00  2.3698699225187009e-01  5.2930828299269861e-01  2.2181093893066964e-01  1.1211319550041463e+00  1.0394025176630268e+00  5.9480430054752176e-01  9.3175385886842088e-01  9.2101999919613609e-01  5.8645991156841260e-01  -2.8986749717192232e-02  -6.9367678559644286e-01  -3.4960411130177560e-01  6.4183965821407463e-01  -1.2965770865282488e-02  -7.9743685924165908e-01  4.9132896952155986e-01  1.1044786003593670e+00  1.0812980356235382e+00  8.8107943106266051e-01  9.5583199320170131e-01  -7.8817038793073535e-01  -8.3192467118320867e-01  -7.5557495810287112e-01  -7.0703846841888185e-01  3.1878364197226461e-01  1.0684403409157601e+00  -2.5009966813734896e-01  -4.7059379350443603e-01  4.7301067183504197e-01  -6.8368830891399146e-01  -2.4452551372135856e-01  2.8554780391955848e-02  -1.3385591275111927e-01  1.0286832634886587e+00  -7.5648118954516974e-01  -8.6793066506064609e-01  -4.7604892700399520e-01  -1.2700279520331109e-01  4.1944896217642758e-01  -1.6817143993131806e-01  9.9853610851727670e-01  7.2336569861488409e-01  -7.9314166420130824e-02  2.9912022686515410e-01  1.0169000016837231e+00  1.0150264233638819e+00  1.1150145592529233e+00  1.1191812323457846e+00  1.0548660492259623e+00  2.2422165274014860e-01  9.9862765630459394e-01  9.5516293225868176e-01  3.6174079889056521e-01  1.1206451388174927e+00  9.2329608288961376e-02  -3.0498373384193866e-01  -5.0870738374952118e-01  6.2188150184349755e-01  -5.1446189227147454e-01  1.1126749329196044e+00  -6.6399697279634118e-01  -8.4482586938604831e-01  5.5724607382740476e-01  -7.7096278594941814e-01  1.0585215299272039e+00  7.3416500380179095e-01  1.0090852823174570e+00  5.1931153376962380e-01  -3.1653034783561840e-01  -8.5709196044709424e-01  9.8921688232649541e-01  3.9167929089688935e-01  7.4136586654368453e-02  -8.1020938486229310e-01  9.2454747687597261e-01  -6.7601932556667554e-01  -3.2121888369143864e-01  -5.8485588051380988e-01  3.4829731889582749e-01  7.6740665410463360e-01  -6.2335708820702607e-01  1.0725715368959932e+00  1.1015424965187932e+00  8.3682259477960808e-01  7.0452307795836810e-01  6.7926355297573859e-01  6.2570874596732629e-01  -1.0291266943390867e-01  -8.4127155543529408e-01  1.7315958229200762e-01  1.0305467092238936e+00  5.9870356257423885e-01  7.4624663176789130e-01  6.7926355297573859e-01  7.3727933020786096e-01  -6.5422327124959434e-01  -8.6945628533079322e-01  -7.4709334439859865e-01  -8.5965799153549571e-01  -2.2022058222775062e-01  -4.7800587019369523e-01  6.9218600258696605e-01  5.4314916526630708e-01  3.1878364197226461e-01  3.1878364197226461e-01  -5.6806451455124662e-01  -7.1397002059991999e-02  -7.6112164440025021e-01  8.8025320063261159e-01  9.5516293225868176e-01  -7.0777629234640904e-01  -1.5474670045911446e-01  -3.6128331735859776e-01  -1.7835553216770636e-01  -8.6433357266619859e-01  -7.0564596771463306e-01  8.8823473743354264e-01  4.2015281152028822e-01  -8.5709196044709424e-01  9.7622477778528460e-01  1.0466971161256862e+00  2.9577871867703193e-01  1.0813869044484745e+00  -3.8239539679433254e-01  -8.4478817438871079e-01  -8.5592746419305843e-01  1.1294378988571916e+00  6.0992991318000800e-01  9.1812538279968259e-01  1.0876616117981766e+00  8.2057419612294002e-01  3.9580887054988079e-01  -5.6054275059713343e-01  -8.7190823523114425e-01  1.1326450404607793e+00  1.5395126254855743e-01  3.2984911853633531e-01  3.1259454103624879e-01  -3.6419497598223138e-01  6.1579993694045765e-01  -8.8345365382760818e-02  -6.9925173791611173e-02  -4.3043169647751789e-01  3.1878364197226505e-01  -4.3187691306346598e-01  -4.3187691306346532e-01  -7.0777629234640915e-01  -7.1397002059992332e-02  3.1878364197226461e-01  -7.1397002059990888e-02  -7.0777629234640882e-01  1.1044786003593670e+00  -7.0777629234640871e-01  -8.5709196044709390e-01  -7.0777629234640882e-01  3.1878364197226439e-01  -7.1397002059990888e-02  -4.3187691306346532e-01  6.7926355297573859e-01  3.1878364197226505e-01  -7.1397002059991999e-02  1.1044786003593670e+00  9.5516293225868176e-01  -8.5709196044709401e-01  -8.5709196044709401e-01  6.7926355297573815e-01  6.7926355297573859e-01  -4.3187691306346576e-01  6.7926355297573815e-01  1.1044786003593670e+00  -4.3187691306346554e-01  6.7926355297573859e-01  9.5516293225868176e-01  -8.5709196044709413e-01  3.1878364197226439e-01  -4.3187691306346598e-01  -7.1397002059991665e-02  -7.1397002059991665e-02  -4.3187691306346554e-01  1.1044786003593670e+00  9.5516293225868198e-01  -8.5709196044709413e-01  -7.0777629234640915e-01  4.6533783925257410e-01  8.1033914739280999e-01  4.6512295821168503e-01  1.0969882380193743e+00  -7.1738329660097688e-01  3.3190861309486369e-01  1.5405470340905342e-01  2.0928409705689560e-01  6.0828291544928514e-01  -4.8954629351901296e-01  1.0731570283159140e+00  1.1207908435364269e+00  -1.4809471935631996e-01  -7.0614070951658636e-01  -8.6562737334422590e-01  -6.9428719777356862e-01  -4.3659275532132785e-01  9.7068291541593987e-01  1.1014641756530952e+00  9.3619603018792386e-01  6.4622309565556280e-01  8.7135693133910241e-01  -1.0420535514330587e-01  -5.3615309068740402e-02  -8.3664361339210802e-01  -5.0322348118026483e-01  8.3076673084191057e-03  9.4142709417795589e-01  1.1301841792468821e+00  -8.5543555080786915e-01  1.0002576991192453e+00  -8.4033927918458629e-01  -7.7638021901677912e-01  8.5561980405577176e-01  -3.2289443514760546e-01  1.0019287900610143e+00  -3.3409853573283821e-01  5.1109852034629499e-01  1.0951903313423386e+00  1.0298976966353495e+00  -3.2442284211609196e-01  7.5074228060706405e-01  -4.9021296629508376e-01  5.4232024079937913e-01  1.1240638840039994e+00  -2.0482780122688618e-01  -3.9833432587408457e-01  -1.4466318605078121e-01  1.0265766456362835e+00  9.4935283727969799e-01  7.1441483946533357e-01  8.9731853462522926e-01  -4.1811113933088595e-01  1.0683882089269445e+00  -3.8190846331854172e-01  -4.6772476241846273e-01  -3.6382012331960251e-01  6.4596831903433590e-03  1.2768289665990595e-01  4.3641488541150353e-01  1.0643819717612801e-01  1.7598879554019307e-02  -1.9085391000278140e-01  1.1304302839663607e+00  -8.5520457186390364e-01  -7.3861397940186047e-01  -6.5641907387587306e-01  1.1137949899936417e+00  -6.8067902289700211e-01  1.0272697389041197e+00  9.3081318055986528e-01  7.3155525448381775e-01  7.6037956827466890e-01  3.8486986842800391e-01  4.4769664594610131e-01  -2.5779834548743408e-01  1.0938031658586254e+00  -5.0582605946954284e-01  -4.2760818856220966e-03  4.9754763773415522e-01  1.0757428595949459e+00  7.2507400331989336e-01  -6.5160395175833308e-01  -3.2105359825877117e-01  1.0477853626827212e+00  2.1385767848045648e-01  8.2580615548753056e-01  -6.3705902660757974e-01  -6.0985307681893741e-01  1.0751564792331860e+00  -4.0179714356110485e-01  -3.4198362313889985e-01  1.3574034308792990e-01  -6.2890839083012329e-01  -6.9968129701108528e-01  -7.1607442852817982e-01  -7.0572632640264510e-01  -8.7332329494058214e-01  8.7058945676087629e-01  6.3273707671345547e-01  -8.6932680149186470e-01  1.0817688121667557e+00  4.6718463162935853e-01  -4.0615477897188992e-03  -7.9155607819369744e-01  2.7926825445647872e-02  7.3507459441551626e-01  -8.6899016967005160e-01  -8.1891217432528030e-01  1.0168019274717168e+00  9.3551676764508396e-01  1.0931423493673142e+00  -1