<?xml version="1.0"?>
<VTKFile type="UnstructuredGrid"  version="0.1"  >
<UnstructuredGrid>
<Piece  NumberOfPoints="15681" NumberOfCells="30848">
<Points>
<DataArray  type="Float64"  NumberOfComponents="3"  format="ascii">0 1 0  0 0 0  1 0 0  1 1 0  0.5 0 0  1 0.5 0  0.5 1 0  0 0.5 0  0.5 0.5 0  0 0.25 0  0.25 0 0  0.25 1 0  0 0.75 0  1 0.25 0  0.75 0 0  1 0.75 0  0.75 1 0  0.7083333333333333 0.2916666666666667 0  0.2916666666666666 0.7083333333333334 0  0.375 0.25 0  0.75 0.625 0  0.2569444444444444 0.4652777777777778 0  0.5366379310344828 0.7535919540229885 0  0.1875 0.1875 0  0.8125 0.8125 0  0.869047619047619 0.375 0  0.1450441919191919 0.6052714646464646 0  0.375 0.8690476190476191 0  0.5526960784313725 0.1825980392156862 0  0.8385416666666666 0.1614583333333334 0  0.1614583333333333 0.8385416666666667 0  0.6736111111111112 0.4652777777777778 0  0.1367521367521368 0.3477564102564102 0  0.6570970491253563 0.8648656830417855 0  0.5102479397556124 0.3386260301221938 0  0.3654513888888889 0.5737847222222222 0  0.6929750044954185 0.1362784921584263 0  0.388576102743835 0.411911725237599 0  0.6091269841269842 0.5942460317460317 0  0.875 0.6875 0  0.427278890279516 0.119889445139758 0  0.8544456845238095 0.5213913690476191 0  0.125 0 0  0 0.125 0  1 0.875 0  0.875 1 0  0.1280008648150532 0.4769292340226777 0  0.2695382451711197 0.3321750950221553 0  0.7031567235715964 0.7447810921428012 0  0.625 0 0  0.375 0 0  0.125 1 0  0.875 0 0  0 0.375 0  0 0.625 0  1 0.375 0  0.375 1 0  1 0.125 0  0 0.875 0  0.625 1 0  1 0.625 0  0.2979288363930608 0.1201429454643536 0  0.410919540229885 0.7484605911330049 0  0.5325041980395562 0.878905151526474 0  0.4831670727569156 0.6331060043826487 0  0.1735997378973042 0.7204747378973043 0  0.2534919507575758 0.5772372159090909 0  0.2633928571428572 0.8876488095238095 0  0.8199404761904761 0.2730654761904762 0  0.75830270586982 0.3919383189517417 0  0.5750282248382511 0.4237522353023667 0  0.6008360210023379 0.2794828358598495 0  0.08163442644334186 0.6821295860397322 0  0.08333333333333333 0.1875 0  0.2028380815996574 0.08844602719988583 0  0.2766521142611967 0.2325436572164097 0  0.90625 0.78125 0  0.890625 0.890625 0  0.7545696325008384 0.8973565441669461 0  0.5625 0.08086590340834317 0  0.09077380952380953 0.09077380952380952 0  0.4610923478694773 0.209034015149656 0  0.7542527598351648 0.5248380520595106 0  0.6459235536037465 0.3619913988405765 0  0.7560381768882634 0.20506142233852 0  0.07073252688172042 0.8125 0  0.0924753097241701 0.9078102849914793 0  0.9292674731182795 0.1875 0  0.9075246902758297 0.09218971500852073 0  0.8125 0.07073252688172045 0  0.2400955776842301 0.7869705776842302 0  0.9121050213379069 0.2781978201831695 0  0.7916878157143976 0.7239689078571988 0  0.9345238095238094 0.4375 0  0.4375 0.9345238095238095 0  0.3725616989755203 0.6651895248862173 0  0.06536271996350887 0.5625 0  0.9348362560379583 0.5625 0  0.456646798987055 0.8277247094351965 0  0.1875 0.9355758238725954 0  0.6169761231634859 0.6939779188977889 0  0.6226854751147515 0.7827911461419014 0  0.3305695598137626 0.7901697871282585 0  0.5865305325818898 0.5101085479043448 0  0.6622701297028378 0.2177663989757395 0  0.1354166666666667 0.2591702279202279 0  0 0.3125 0  0.2094429575680048 0.3936361846162499 0  0.836666296419157 0.607917407161686 0  0.6875 1 0  0.214261555450504 0.6492551722020035 0  0 0.4375 0  0.07731537126068377 0.40625 0  0.3427725432967068 0.4879566233699599 0  0.3550792513951871 0.3331953632609953 0  0.4462473953896857 0.2887834789342508 0  0.4747801464819794 0.417386052030127 0  0.8229836475148948 0.4443292349237342 0  0.7322605135514757 0.8199240278289671 0  0.6756431877205955 0.5468989748126787 0  0.1968419507215863 0.5194573482612496 0  0.3285590277777778 0.9345238095238095 0  0.8125 1 0  0.4198917601920009 0.5134893045331258 0  0.5232405503206691 0.2595791787880157 0  1 0.9375 0  0.1987510870015086 0.3025185951894431 0  0.5625 1 0  0.6005390654136388 0.9228110509230952 0  0.6411254848194414 0.07704872765442942 0  0.3357233162523242 0.1855113224530532 0  0.6730653396610877 0.6393887462324165 0  0.310966987234063 0.6240019765311626 0  0.7368737836204349 0.07457755202327881 0  0.6192316414418171 0.1485238406378594 0  0.5432429670607106 0.678552703844006 0  0.4754371679695679 0.7103946803120881 0  0.07501324890749672 0.3043839897335739 0  0.5358146975860403 0.5688321463205916 0  0.3115271739500156 0.3982137365971444 0  0.3625191397122174 0.0767854603650549 0  0.5024029442563831 0.1264128223758444 0  0.4375 0 0  0.4699946908887376 0.06379961173775725 0  0.9375 0.71875 0  0.9272105898044465 0.635671179608893 0  0.9375 1 0  0.6690971819568612 0.9331530898202766 0  0.1073454944778885 0.7499206387638554 0  0.8699082999280406 0.2232403652524313 0  0.5773118091863964 0.3548027349159383 0  0.1354166666666667 0.1428571428571428 0  0.3125 0 0  0.8241684193077341 0.9257452995055244 0  0.4352314948354036 0.3586940847489378 0  0.4351301473778832 0.5819726043539077 0  0.8073232928518163 0.3419398170341962 0  0.7775949246947366 0.1298519409204575 0  0.6875 0 0  0.7413513991851041 0.457933324954483 0  0.939453125 0.841796875 0  0.5630355154606987 0.8171875156478349 0  0.9345238095238095 0.3461466592368577 0  0.9375 0 0  1 0.0625 0  0.0625 1 0  0 0.9375 0  0.06552178593177167 0.4969053669623468 0  0.1424866619031703 0.4130277709291224 0  0.1275287182444726 0.5422946908002588 0  0.2637686595586339 0.06413888464529549 0  0.2524263535491086 0.1697437503243817 0  0.7367218397988525 0.6888573970660841 0  0.0625 0 0  0 0.0625 0  0.8463594539285995 0.7578283617857982 0  0.3128751192101563 0.2851997374369947 0  0.4015281788351144 0.1806421385113692 0  0.1910251795116588 0.4553332197174453 0  0.287797471442006 0.5222621440543902 0  0.3962628745986055 0.8097380085535307 0  0.3505895299554843 0.7304878890838692 0  0.5019151500495276 0.9356042615328103 0  0.9374389419410134 0.4999931039076005 0  0.3125 1 0  0.1875 1 0  1 0.5625 0  0.4375 1 0  1 0.3125 0  1 0.4375 0  0.8125 0 0  1 0.1875 0  0.5625 0 0  0.1875 0 0  0 0.1875 0  0 0.5625 0  0 0.6875 0  0 0.8125 0  1 0.6875 0  1 0.8125 0  0.8021696218581627 0.6612893947866073 0  0.06154922295426143 0.6239401126946708 0  0.9359375 0.9359375 0  0.4666158024849896 0.7691515918155014 0  0.2318201265217025 0.7064974250277525 0  0.1565954253579966 0.6635489312486841 0  0.1598132503680848 0.7787147500325552 0  0.3146529991605639 0.8510876378205265 0  0.1461873209418733 0.05982804528877814 0  0.06109554988524315 0.2446551776247686 0  0.8054950308560754 0.5564226538848541 0  0.470541749491976 0.8853316336952531 0  0.6948472567465137 0.4042308563372457 0  0.8802828472348889 0.4658893256343853 0  0.6788075634946739 0.7974194205806069 0  0.2155048659603867 0.2428201584940968 0  0.8131223143423806 0.2132171049028394 0  0.4330798005432235 0.6671274900735726 0  0.6015279126162613 0.2187368078743274 0  0.8061636571464289 0.8703766630361714 0  0.7008230445061776 0.3478568388444072 0  0.8638466246958771 0.3147095987735538 0  0.204801534004265 0.8789209409594009 0  0.2449006736431132 0.9424182882803838 0  0.7611268409371427 0.2643056884799992 0  0.7552800864046191 0.7678006649959446 0  0.5983639638906616 0.864113435029236 0  0.1956559506814437 0.577281203577426 0  0.3527670268164207 0.1320469097565204 0  0.7530364577483248 0.3262386077083089 0  0.4535919187979363 0.4690107087451527 0  0.8824869791666666 0.8336588541666666 0  0.8814453125 0.9451171875 0  0.5582987942628019 0.622421666543858 0  0.6817532446064828 0.6939001801354731 0  0.3830295138888889 0.9450968952922078 0  0.4140603937012541 0.05211333372716105 0  0.5535864501303013 0.3060591985391672 0  0.6560130086346878 0.2729726562211558 0  0.890203140221684 0.5948314305427268 0  0.7043857725999024 0.593980890020804 0  0.5105843922695152 0.8016828014338627 0  0.05365910753708378 0.7315110031682004 0  0.616904573672261 0.4621186633436136 0  0.5338511646455415 0.387875898899613 0  0.5231769258947843 0.4477682463140762 0  0.650302973237622 0.7370722302085519 0  0.3927483139621257 0.4662414504529014 0  0.8034595960585199 0.4972538342758211 0  0.7738337841682438 0.9496376207663251 0  0.7193737507158268 0.954685447650112 0  0.482525916480686 0.5528257169991676 0  0.2533501157346781 0.2809495420003238 0  0.3118487924482243 0.5702930126570319 0  0.6257598847669529 0.4104163315430518 0  0.1354166666666667 0.1955605158730158 0  0.04166666666666666 0.15625 0  0.3956448985530264 0.6174149462065157 0  0.8102897701818546 0.3938784238208349 0  0.2641154190013625 0.8344469561943118 0  0.642852220770013 0.5068794586563659 0  0.05271458179508221 0.355846947336007 0  0.7021551360070266 0.8921457280225779 0  0.5692125776683765 0.1328512638850284 0  0.5206162811937602 0.04865158770992991 0  0.6001838442201555 0.04540556991297563 0  0.2597716608242787 0.4118346398477178 0  0.4040584599473195 0.3179589136784675 0  0.1480337679295207 0.8941560631483065 0  0.1344356707112281 0.9466251177415842 0  0.7114696411829317 0.4983917389078826 0  0.7585704698442475 0.5751926345944629 0  0.2189131956390871 0.04022068508159698 0  0.2476935455192043 0.1123642267635843 0  0.185995005654517 0.1365524537205238 0  0.6223414373308711 0.643380839165121 0  0.5732602596637543 0.7190051747306219 0  0.268358222364537 0.6586246524467934 0  0.3265879848129173 0.2369791782191225 0  0.1267095595787346 0.7034787238999181 0  0.1115202922226038 0.6421997933884982 0  0.3128688392940203 0.07260997451790079 0  0.550724900485678 0.9253360991633187 0  0.7142608810459105 0.2384904702214873 0  0.7045869185243887 0.1871826897887429 0  0.890625 0.734375 0  0.953125 0.765625 0  0.2111812642821677 0.8286209446459138 0  0.9590293078204457 0.09375 0  0.953431269039847 0.1435719386408004 0  0.04097069217955424 0.90625 0  0.04656873096015299 0.8564280613591996 0  0.1078743037981226 0.8541621766048062 0  0.8921256962018773 0.1458378233951939 0  0.8521576979194619 0.1084496634207678 0  0.8655663982740958 0.05464346096571447 0  0.04005659640905543 0.09375 0  0.1001448316533417 0.0424677624422826
[...]
<PointData  Scalars="f_76639"> 
<DataArray  type="Float64"  Name="f_76639"  format="ascii">1.9980267284282713e+00  1.9980267284282713e+00  1.9980267284282713e+00  1.9980267284282709e+00  1.9980267284282720e+00  1.9980267284282718e+00  1.9980267284282718e+00  1.9980267284282720e+00  1.9849104538609019e+00  2.9980267284282713e+00  2.9980267284282713e+00  2.9980267284282713e+00  9.9802672842827134e-01  2.9980267284282713e+00  9.9802672842827145e-01  9.9802672842827145e-01  9.9802672842827145e-01  1.9883872744316200e+00  1.9884014405511627e+00  1.2811523210625120e+00  2.6951175053752938e+00  1.0031747761941359e+00  2.9562309831055700e+00  2.6993624957189102e+00  1.2849655312170107e+00  2.9912205106431866e+00  9.9092555526639259e-01  2.9909351173713894e+00  9.9386703733417170e-01  1.9932170372491440e+00  1.9932030585983804e+00  2.7524316892224134e+00  2.0888689222004251e+00  1.8541513656534265e+00  1.1727792154756458e+00  1.6133798164759405e+00  1.1134152008157621e+00  1.0356805628142636e+00  2.9428401937152335e+00  1.6096323276988649e+00  1.7000253871965092e+00  2.6941101175336124e+00  2.7051335096148188e+00  2.7051335096148188e+00  1.2909199472417230e+00  1.2909199472417230e+00  1.3790005985960407e+00  1.3917365467237732e+00  2.3103469087983868e+00  1.2909199472417239e+00  2.7051335096148188e+00  2.7051335096148188e+00  1.2909199472417239e+00  2.7051335096148188e+00  1.2909199472417239e+00  2.7051335096148197e+00  2.7051335096148197e+00  2.7051335096148188e+00  1.2909199472417239e+00  1.2909199472417234e+00  1.2909199472417234e+00  2.4849204320338871e+00  2.8300588046736270e+00  2.5200489806528159e+00  2.6527965761517964e+00  1.3735114261231258e+00  1.1138913674522188e+00  2.8061574773268076e+00  2.5427454525643576e+00  2.7982709947613706e+00  1.9777288285923411e+00  1.3042131548796270e+00  9.9762533340139303e-01  2.9860170850574801e+00  2.9610200929802621e+00  1.9319993359818146e+00  1.0702409534581532e+00  1.0142466599428779e+00  1.1775479640330684e+00  1.2099069201042605e+00  2.9050233032467534e+00  1.1120819980550600e+00  2.9710153775235808e+00  2.0362753840285492e+00  1.7488240508095159e+00  1.3256223691195574e+00  1.9976486500266775e+00  2.6648718103394948e+00  1.9940613264538605e+00  1.3256717301938143e+00  2.1599438597893714e+00  2.9245246745264466e+00  1.8919778224729731e+00  2.7146088107054567e+00  2.7147980035068655e+00  2.2217257775197381e+00  1.2744842421851721e+00  2.0110814207722609e+00  2.9668038600968663e+00  2.6941981099241143e+00  2.9145814018735710e+00  2.5485114485584957e+00  2.6775338826860642e+00  2.5558312597551449e+00  1.3048402804103947e+00  2.6075590296228448e+00  2.9219062609395583e+00  1.3857323288955641e+00  2.3317210380012603e+00  1.0741471959169850e+00  1.2331514929393337e+00  2.3807101607933614e+00  2.0969781327471098e+00  1.1115937509735463e+00  1.0615774431677190e+00  9.9136470774166385e-01  1.3584028806047055e+00  2.9841636245363405e+00  1.6689898233605134e+00  2.9714495233200857e+00  1.0117098723332385e+00  2.9913216613485405e+00  1.0741471959169848e+00  1.5786160555706683e+00  1.0086951348811797e+00  1.6153432960631808e+00  1.9822330286619301e+00  1.6153432960631817e+00  1.8476636388103360e+00  1.0140769095642028e+00  1.8572007332704128e+00  2.9108490093312080e+00  1.5896858287753231e+00  1.0683047779470267e+00  9.9746401299896792e-01  2.9708381826285111e+00  2.9065013863425895e+00  2.6816426357201282e+00  2.5963286429119061e+00  1.0187390283783773e+00  2.3662184756297560e+00  1.2677032696447081e+00  2.3807101607933614e+00  1.7837523671109858e+00  1.1633338918245895e+00  1.6092749608128951e+00  1.6153432960631808e+00  1.3954028457106185e+00  1.2118350654732668e+00  2.5453381485238280e+00  1.5723087274544314e+00  2.9784926290975631e+00  2.9219062609395583e+00  9.9497073254552015e-01  1.0239192755950479e+00  2.0925890093612942e+00  2.7962848558638544e+00  1.4438260157167091e+00  1.0741471959169848e+00  2.9374141071844351e+00  1.0148671182138080e+00  2.6731955062501727e+00  2.9760132987212855e+00  1.6153432960631811e+00  2.3807101607933614e+00  2.3807101607933614e+00  1.6153432960631811e+00  1.6121291724317333e+00  1.6493918875042197e+00  1.1155028034760461e+00  2.8776359746929190e+00  2.4613670533926166e+00  2.4392390008204279e+00  2.3807101607933614e+00  2.3807101607933614e+00  1.3832081453753122e+00  1.4103723976978240e+00  1.4964600475564624e+00  1.1940019249833591e+00  1.0571914563168230e+00  2.9517026386902177e+00  2.4757774817632145e+00  2.3768863852781634e+00  2.3776315917037958e+00  2.9219062609395583e+00  2.9219062609395579e+00  1.6153432960631817e+00  2.3807101607933618e+00  2.9219062609395583e+00  2.3807101607933618e+00  1.0741471959169848e+00  2.9219062609395579e+00  1.6153432960631817e+00  2.9219062609395583e+00  2.9219062609395583e+00  1.6153432960631817e+00  1.0741471959169848e+00  1.0741471959169848e+00  1.0741471959169850e+00  1.0741471959169848e+00  2.2173945501330734e+00  1.0755986113654339e+00  1.2758075913293137e+00  2.9842526985092919e+00  1.6115670290912709e+00  1.0866782952481873e+00  1.6155112973455084e+00  2.8547734020313733e+00  2.9578030386129610e+00  2.9345669805638801e+00  2.7521516677188429e+00  2.7789449796395047e+00  2.5700022719758833e+00  2.8147622688813310e+00  2.1385885235994211e+00  2.2494624909478760e+00  2.1564496299417852e+00  2.5750856522931738e+00  1.0849093964152543e+00  1.0978976320068090e+00  2.2886458424365776e+00  2.8928420022920651e+00  2.4956151826982476e+00  2.9189966554150795e+00  2.1488985457531840e+00  1.8456260659694850e+00  2.2250110230618843e+00  9.9971722398304186e-01  2.0871447586970295e+00  2.4665863120768443e+00  1.5177755479502322e+00  1.0165848350902642e+00  1.1096126268151276e+00  2.8925498435678976e+00  2.6919487809004972e+00  2.8769640984399634e+00  2.2060579383616759e+00  1.2149057954963478e+00  1.5563995030043025e+00  2.0862795735961193e+00  2.9411168460375818e+00  2.9134854770776544e+00  1.0194268237355999e+00  2.4619385759597141e+00  1.5132146322624604e+00  1.8035470618040457e+00  2.6382918085431166e+00  1.2108924282970797e+00  2.9387147110475498e+00  1.0095314760276441e+00  1.1072430122332308e+00  2.2053445681454935e+00  1.7753846344300948e+00  1.3119884334049519e+00  2.2112907488481852e+00  2.8668064176086996e+00  2.9431996428542231e+00  2.0679014786477712e+00  2.9485052736913580e+00  2.5720076974011268e+00  2.7938469832518615e+00  2.5386286785405940e+00  1.4344260033137295e+00  1.0366840607096452e+00  1.5736670851885146e+00  1.2028817509442959e+00  1.1066487130021543e+00  1.0021479692824464e+00  2.2567179677051921e+00  2.4839248059387042e+00  2.9551105465033136e+00  2.8526350615619029e+00  2.9945108184490978e+00  2.7633015058225205e+00  2.8911269513819358e+00  2.9814312969439927e+00  2.9521135542028203e+00  1.5451833930313019e+00  1.6001120157943820e+00  1.1169116973051734e+00  9.9275447433481678e-01  2.6535331847930159e+00  2.1437059742017932e+00  1.6969562834523455e+00  1.3617624286167649e+00  1.2861584241808783e+00  1.0149449828459645e+00  2.2395872327385011e+00  2.3225008433100065e+00  2.5689182436008431e+00  1.6712927423691346e+00  1.4238883415281118e+00  1.7584085987410667e+00  2.2309512326000691e+00  1.7495456383123613e+00  1.5155199371898513e+00  2.7421087115818881e+00  2.7777019794363538e+00  1.9003819822872965e+00  2.2631767522763355e+00  2.9249924780349428e+00  2.5383208567778532e+00  1.0077019010763502e+00  1.0866779228266552e+00  1.3535495051512951e+00  1.2080727084202254e+00  1.4715717365338703e+00  2.9862943775494020e+00  9.8764759518197598e-01  2.9840280370222003e+00  2.9150136244192262e+00  1.0800287336204586e+00  1.0809318400496259e+00  2.9950029620402243e+00  1.1594313815289174e+00  1.7456348227896803e+00  2.2825578884029136e+00  1.6207740960366455e+00  1.9145591618366080e+00  1.1186184245466255e+00  2.8428865532814935e+00  1.3537948978939618e+00  1.7643981702840237e+00  2.5635993103891090e+00  2.1193650470454499e+00  2.7474753692905352e+00  2.6894105295920183e+00  2.9253636128543250e+00  2.8132462688293032e+00  1.7474148799945954e+00  2.8213380986904597e+00  2.9148508224746688e+00  1.0323647663731799e+00  9.8778334605770424e-01  1.8146873776192096e+00  1.5693102542357364e+00  2.7918709164310527e+00  1.7825010031199753e+00  2.7678420079512311e+00  2.9031534922807438e+00  2.3872421380238187e+00  1.0668220899322045e+00  1.6051331045608632e+00  1.6211923033766575e+00  2.4149246676699150e+00  9.9718486556615771e-01  1.0662758203383529e+00  1.8813084975554442e+00  1.3228134156606028e+00  9.9657517389620509e-01  1.2952555497403511e+00  2.2576888247213969e+00  2.1949070290427954e+00  2.9959277095396493e+00  1.2809051192389147e+00  2.6080170128581952e+00  2.8672199756769290e+00  2.4448569521877808e+00  1.0721619812584613e+00  1.9955297558703047e+00  1.9962965280817377e+00  2.3958875328763076e+00  1.9964306326916550e+00  1.9974558707276329e+00  1.5973397327021499e+00  2.5039425751020890e+00  2.5876656515301200e+00  1.0124910915351568e+00  1.0722861714163854e+00  1.7925244721440341e+00  2.3736572271577812e+00  1.2935284204423947e+00  1.0130567336953291e+00  2.9848565337509658e+00  1.2192811098422571e+00  2.9930750150780878e+00  1.1799949090501760e+00  1.6212309772755094e+00  1.3210448334360683e+00  1.2147273623701704e+00  1.1940663060884915e+00  9.8672262668151511e-01  2.5373554988307108e+00  2.9760360357796047e+00  2.7676818649334027e+00  2.3677464197291314e+00  2.9577386160092094e+00  1.7843119000214265e+00  2.1015063301641823e+00  1.0019410607664192e+00  9.9076946867555560e-01  1.0292799677151712e+00  2.9819157788380051e+00  2.2299343856253140e+00  9.8962620367810861e-01  1.1446705636380639e+00  2.7681923697823567e+00  1.4199095288572710e+00  2.9959782163463444e+00  2.4118993540693645e+00  2.9581524719359114e+00  2.9889314888432801e+00  2.6959364641972150e+00  2.8847544708205448e+00  1.5036122047709397e+00  1.2489721260592987e+00  1.6252348578667510e+00  1.8029364064121427e+00  1.2882471517577923e+00  1.0463188333551028e+00  2.2908543178696577e+00  2.9894866618719114e+00  2.3175748469501642e+00  1.3474739123232027e+00  1.1295747396776923e+00  2.9788120088315018e+00  2.7519524044567221e+00  1.7944480874153852e+00  1.6528007892419982e+00  2.9634586561742786e+00  1.0260065649127401e+00  1.0740496168703906e+00  2.1265085268934469e+00  1.8684977317504547e+00  1.1544846531304489e+00  9.9933617595342217e-01  1.9128446741243534e+00  2.7923623752214759e+00  2.7228202999607989e+00  1.5233411232037055e+00  1.9895434573484001e+00  2.9788120088315018e+00  2.3393404818962931e+00  2.3975280680534947e+00  2.9614350857583234e+00  2.9047793337420234e+00  1.3455126866082170e+00  2.5432682556583512e+00  1.4056887715020372e+00  2.8624841933340277e+00  2.7863829328508762e+00  1.0027365503889178e+00  9.9869043671599933e-01  1.0865898275726598e+00  1.1502498233046210e+00  1.3215830829448116e+00  1.1638390934588960e+00  2.8890490431978995e+00  1.1121011845670061e+00  2.0112527329795751e+00  1.4424564954086692e+00  2.7702136026934325e+00  2.0766789090549533e+00  2.1890369006595463e+00  1.5285079636684187e+00  9.9655356869198652e-01  2.9889747603946213e+00  2.5535969614478735e+00  2.2517879473289963e+00  1.9178133551897480e+00  2.7708978318348838e+00  1.2796633453839945e+00  1.3389075664585675e+00  1.0138003806425830e+00  2.9773872838579916e+00  1.6378340259060660e+00  1.1665571161257260e+00  1.2583099498155459e+00  1.0655959996098057e+00  1.2098924602325951e+00  1.5396357353992534e+00  2.1728239411605554e+00  1.5567931958585781e+00  1.0797657331503709e+00  2.9811257658165982e+00  2.9873255461700059e+00  2.8523301143460023e+00  2.9936384622141921e+00  2.8294963407308167e+00  1.0061043491792756e+00  1.0381494265003000e+00  2.7548966640368242e+00  1.0383914841459025e+00  1.1665571161257264e+00  9.9069636581560672e-01  1.8752496439658817e+00  9.9812339447325660e-01  2.6932994764096492e+00  2.5387819754415131e+00  1.3183585688470039e+00  1.9140254955622720e+00  2.1090472630136086e+00  1.8932693170813601e+00  2.8294963407308171e+00  1.8061693333610824e+00  2.9878034214018725e+00  1.4051247565135920e+00  1.1360171807156545e+00  1.1005449394497806e+00  2.2374603477093684e+00  2.5064859925366130e+00  1.6106437617419322e+00  2.8294963407308167e+00  2.9788120088315018e+00  2.8661023918743398e+00  2.6854264922961302e+00  2.4613004423600255e+00  1.0564470649883368e+00  1.2981246481271129e+00  2.5830709658387940e+00  1.0024024245366234e+00  1.7189100071783834e+00  2.6913585873294021e+00  1.3800961709473680e+00  2.9883795780406222e+00  1.0172414480250411e+00  1.9221061826713748e+00  2.7658395043772646e+00  2.8831237710661215e+00  2.1075726219653297e+00  2.3945303931687483e+00  2.0729920455669819e+00  2.9882145640396485e+00  2.9041181928269455e+00  2.4526297019407979e+00  2.7862326985965526e+00  2.7765621800988805e+00  2.4443343047216901e+00  1.8269938936724288e+00  1.1778937740145279e+00  1.5138074713510012e+00  2.5051273087178991e+00  1.8577891786895744e+00  1.0589854168551971e+00  2.3539338121794806e+00  2.9788120088315022e+00  2.9421807698896330e+00  2.7422903480253940e+00  2.8141736986179966e+00  1.0664630842957505e+00  1.0395219939305949e+00  1.1123330515683838e+00  1.1637834646198095e+00  2.1931170504443998e+00  2.9304778074340563e+00  1.6132528636774062e+00  1.3903248534872459e+00  2.3266873133903059e+00  1.1871982693513703e+00  1.6208686070418121e+00  1.8808461524023461e+00  1.7375765422974918e+00  2.8821051267869442e+00  1.1157862265262195e+00  1.0010592380806300e+00  1.3767391733702794e+00  1.7253125231633022e+00  2.2894485189645839e+00  1.7018273999803124e+00  2.8562437177453011e+00  2.5822389771049479e+00  1.7815598077672863e+00  2.1583308721284347e+00  2.8834469191998986e+00  2.8804748995488363e+00  2.9826016809831706e+00  2.9880004194877996e+00  2.9106372224453003e+00  2.0975839518396877e+00  2.8538888172072756e+00  2.8294963407308167e+00  2.2263472326174107e+00  2.9918680543014675e+00  1.9643903069397677e+00  1.5528273544116828e+00  1.3532176165537189e+00  2.4832830861439898e+00  1.3584132019174675e+00  2.9654942044451422e+00  1.2034594556116907e+00  1.0270074379261971e+00  2.4228541830378871e+00  1.0869867183210793e+00  2.9120474252641353e+00  2.5991364894847080e+00  2.8801615184666325e+00  2.3773914383659855e+00  1.5387623859924144e+00  1.0172414480250409e+00  2.8551396879734607e+00  2.2428489095702160e+00  1.9383498878805967e+00  1.0453891418825128e+00  2.7801629678277990e+00  1.1858967155836664e+00  1.5304075188127118e+00  1.2738240169869248e+00  2.2132946022758739e+00  2.6244133596939663e+00  1.2420315970381706e+00  2.9411892911519537e+00  2.9728875295415507e+00  2.7035197933849591e+00  2.5753938021937102e+00  2.5535969614478735e+00  2.4772385736476390e+00  1.7487753613212593e+00  1.0209263650677920e+00  2.0342801619477431e+00  2.9016182459256803e+00  2.4559442673640719e+00  2.6130881156867654e+00  2.5535969614478735e+00  2.6044682220774704e+00  1.2111807212284893e+00  9.9899804407076354e-01  1.1064690732868221e+00  1.0079404711673432e+00  1.6417318628831701e+00  1.3762823206393240e+00  2.5599239762311448e+00  2.4087461734178905e+00  2.1931170504443998e+00  2.1931170504443998e+00  1.2957392015777600e+00  1.8029364064121429e+00  1.1096269557769278e+00  2.7520939230795958e+00  2.8294963407308167e+00  1.1665571161257260e+00  1.7106590475655219e+00  1.4958549386627686e+00  1.6796876303105805e+00  9.8926948368535250e-01  1.1584935075331537e+00  2.7530792276630458e+00  2.2746739179155648e+00  1.0172414480250409e+00  2.8485218753268566e+00  2.9172394239899613e+00  2.1625884761523508e+00  2.9430928694610494e+00  1.4901565677746054e+00  1.0198670956042541e+00  1.0024350611206270e+00  2.9888361062683182e+00  2.4728241290595157e+00  2.7788660897565474e+00  2.9502786931167919e+00  2.6769088033720863e+00  2.2526098529203971e+00  1.3031884400832356e+00  9.9758706908104056e-01  2.9859379175726324e+00  2.0123277615172608e+00  2.1977245138409844e+00  2.1835786236117696e+00  1.5053002814056216e+00  2.4852970220893749e+00  1.7823313936187855e+00  1.8010905412601492e+00  1.4406744460250023e+00  2.1931170504444002e+00  1.4424564954086692e+00  1.4424564954086696e+00  1.1665571161257260e+00  1.8029364064121427e+00  2.1931170504443998e+00  1.8029364064121443e+00  1.1665571161257262e+00  2.9788120088315022e+00  1.1665571161257264e+00  1.0172414480250411e+00  1.1665571161257262e+00  2.1931170504443993e+00  1.8029364064121443e+00  1.4424564954086696e+00  2.5535969614478735e+00  2.1931170504444002e+00  1.8029364064121429e+00  2.9788120088315018e+00  2.8294963407308167e+00  1.0172414480250409e+00  1.0172414480250409e+00  2.5535969614478731e+00  2.5535969614478735e+00  1.4424564954086692e+00  2.5535969614478731e+00  2.9788120088315018e+00  1.4424564954086696e+00  2.5535969614478735e+00  2.8294963407308167e+00  1.0172414480250409e+00  2.1931170504443993e+00  1.4424564954086692e+00  1.8029364064121434e+00  1.8029364064121434e+00  1.4424564954086696e+00  2.9788120088315018e+00  2.8294963407308171e+00  1.0172414480250409e+00  1.1665571161257260e+00  2.3239243137435386e+00  2.6735615957729273e+00  2.3185048031085458e+00  2.9682725519361224e+00  1.1390160339101865e+00  2.2026809048839961e+00  2.0139104209448009e+00  2.0692246146162776e+00  2.4704300947357387e+00  1.3763892007168279e+00  2.9454542002060120e+00  2.9925314232191500e+00  1.7171205766580271e+00  1.1618954937092680e+00  1.0012357601262196e+00  1.1768671652137741e+00  1.4312827876340699e+00  2.8393313230352573e+00  2.9703318093939832e+00  2.8013796213143181e+00  2.5043435873495814e+00  2.7340037562911590e+00  1.7544810390747858e+00  1.8170781547010495e+00  1.0289544962729160e+00  1.3483709298347293e+00  1.8707186756671090e+00  2.7933548106403459e+00  2.9842544331727328e+00  1.0033101641741387e+00  2.8593840286560379e+00  1.0144427982595119e+00  1.0762745108867231e+00  2.7267497728336014e+00  1.5406700777144722e+00  2.8684904494952463e+00  1.5243829678484417e+00  2.3664486677933274e+00  2.9580891669891525e+00  2.8948267033172015e+00  1.5295009640185784e+00  2.6044614424572172e+00  1.3666229196070583e+00  2.4028783377954883e+00  2.9782527430540524e+00  1.6606265722033742e+00  1.4597057122801018e+00  1.7127702155131879e+00  2.8837211853054749e+00  2.8087983305473228e+00  2.5737896863348295e+00  2.7609881549385888e+00  1.4530189633274178e+00  2.9277636045753028e+00  1.4783980329369495e+00  1.3970882646313101e+00  1.4988915857111065e+00  1.8749434717429356e+00  1.9801156133225213e+00  2.2958318295541345e+00  1.9648149403390360e+00  1.8774884296118786e+00  1.6759612211325658e+00  2.9886549165610363e+00  1.0071573722063618e+00  1.1214997169183292e+00  1.2053851051815612e+00  2.9748868515562719e+00  1.1713845078535539e+00  2.8848473827840944e+00  2.7960704072578904e+00  2.5971821134663684e+00  2.6281558005299614e+00  2.2500290288156330e+00  2.3144608823585546e+00  1.6091763605958029e+00  2.9465272278834691e+00  1.3519341314290010e+00  1.8607106351475011e+00  2.3570596995828104e+00  2.9472927604285801e+00  2.5792965000172590e+00  1.2033970217835757e+00  1.5444373813142815e+00  2.9005449038892657e+00  2.0761798481314000e+00  2.6901850832704275e+00  1.2185986439162382e+00  1.2583779140363638e+00  2.9326192558962920e+00  1.4506511698302924e+00  1.5239044716039833e+00  1.9966231028765578e+00  1.2372430995600867e+00  1.1712536930252020e+00  1.1489290564598043e+00  1.1599719573172307e+00  9.9832682791071836e-01  2.7331953061083381e+00  2.5053193369077866e+00  9.9106030071160878e-01  2.9346748259622397e+00  2.3185057958560762e+00  1.8552434781154012e+00  1.0685398627778893e+00  1.8887221888256001e+00  2.5879166045777691e+00  9.8950922677248565e-01  1.0384208728676931e+00  2.8842360921765713e+00  2.8045983882133263e+00  2.9649977634072235e+00  1.7544079945065567e+00  2.0034603745182769e+00  1.9969994531458053e+00  2.6709172900789566e+00  1.8581127603607683e+00  2.3726848746850497e+00  1.6648880878153052e+00  2.4641090495861575e+00  1.0263124291659356e+00  2.5785564794203211e+00  2.8555668725877310e+00  1.0931306108856749e+00  1.1420537987463224e+00  1.2094702797507915e+00  2.4919471569411300e+00  2.07138247325