<?xml version="1.0"?>
<VTKFile type="UnstructuredGrid"  version="0.1"  >
<UnstructuredGrid>
<Piece  NumberOfPoints="15681" NumberOfCells="30848">
<Points>
<DataArray  type="Float64"  NumberOfComponents="3"  format="ascii">0 1 0  0 0 0  1 0 0  1 1 0  0.5 0 0  1 0.5 0  0.5 1 0  0 0.5 0  0.5 0.5 0  0 0.25 0  0.25 0 0  0.25 1 0  0 0.75 0  1 0.25 0  0.75 0 0  1 0.75 0  0.75 1 0  0.7083333333333333 0.2916666666666667 0  0.2916666666666666 0.7083333333333334 0  0.375 0.25 0  0.75 0.625 0  0.2569444444444444 0.4652777777777778 0  0.5366379310344828 0.7535919540229885 0  0.1875 0.1875 0  0.8125 0.8125 0  0.869047619047619 0.375 0  0.1450441919191919 0.6052714646464646 0  0.375 0.8690476190476191 0  0.5526960784313725 0.1825980392156862 0  0.8385416666666666 0.1614583333333334 0  0.1614583333333333 0.8385416666666667 0  0.6736111111111112 0.4652777777777778 0  0.1367521367521368 0.3477564102564102 0  0.6570970491253563 0.8648656830417855 0  0.5102479397556124 0.3386260301221938 0  0.3654513888888889 0.5737847222222222 0  0.6929750044954185 0.1362784921584263 0  0.388576102743835 0.411911725237599 0  0.6091269841269842 0.5942460317460317 0  0.875 0.6875 0  0.427278890279516 0.119889445139758 0  0.8544456845238095 0.5213913690476191 0  0.125 0 0  0 0.125 0  1 0.875 0  0.875 1 0  0.1280008648150532 0.4769292340226777 0  0.2695382451711197 0.3321750950221553 0  0.7031567235715964 0.7447810921428012 0  0.625 0 0  0.375 0 0  0.125 1 0  0.875 0 0  0 0.375 0  0 0.625 0  1 0.375 0  0.375 1 0  1 0.125 0  0 0.875 0  0.625 1 0  1 0.625 0  0.2979288363930608 0.1201429454643536 0  0.410919540229885 0.7484605911330049 0  0.5325041980395562 0.878905151526474 0  0.4831670727569156 0.6331060043826487 0  0.1735997378973042 0.7204747378973043 0  0.2534919507575758 0.5772372159090909 0  0.2633928571428572 0.8876488095238095 0  0.8199404761904761 0.2730654761904762 0  0.75830270586982 0.3919383189517417 0  0.5750282248382511 0.4237522353023667 0  0.6008360210023379 0.2794828358598495 0  0.08163442644334186 0.6821295860397322 0  0.08333333333333333 0.1875 0  0.2028380815996574 0.08844602719988583 0  0.2766521142611967 0.2325436572164097 0  0.90625 0.78125 0  0.890625 0.890625 0  0.7545696325008384 0.8973565441669461 0  0.5625 0.08086590340834317 0  0.09077380952380953 0.09077380952380952 0  0.4610923478694773 0.209034015149656 0  0.7542527598351648 0.5248380520595106 0  0.6459235536037465 0.3619913988405765 0  0.7560381768882634 0.20506142233852 0  0.07073252688172042 0.8125 0  0.0924753097241701 0.9078102849914793 0  0.9292674731182795 0.1875 0  0.9075246902758297 0.09218971500852073 0  0.8125 0.07073252688172045 0  0.2400955776842301 0.7869705776842302 0  0.9121050213379069 0.2781978201831695 0  0.7916878157143976 0.7239689078571988 0  0.9345238095238094 0.4375 0  0.4375 0.9345238095238095 0  0.3725616989755203 0.6651895248862173 0  0.06536271996350887 0.5625 0  0.9348362560379583 0.5625 0  0.456646798987055 0.8277247094351965 0  0.1875 0.9355758238725954 0  0.6169761231634859 0.6939779188977889 0  0.6226854751147515 0.7827911461419014 0  0.3305695598137626 0.7901697871282585 0  0.5865305325818898 0.5101085479043448 0  0.6622701297028378 0.2177663989757395 0  0.1354166666666667 0.2591702279202279 0  0 0.3125 0  0.2094429575680048 0.3936361846162499 0  0.836666296419157 0.607917407161686 0  0.6875 1 0  0.214261555450504 0.6492551722020035 0  0 0.4375 0  0.07731537126068377 0.40625 0  0.3427725432967068 0.4879566233699599 0  0.3550792513951871 0.3331953632609953 0  0.4462473953896857 0.2887834789342508 0  0.4747801464819794 0.417386052030127 0  0.8229836475148948 0.4443292349237342 0  0.7322605135514757 0.8199240278289671 0  0.6756431877205955 0.5468989748126787 0  0.1968419507215863 0.5194573482612496 0  0.3285590277777778 0.9345238095238095 0  0.8125 1 0  0.4198917601920009 0.5134893045331258 0  0.5232405503206691 0.2595791787880157 0  1 0.9375 0  0.1987510870015086 0.3025185951894431 0  0.5625 1 0  0.6005390654136388 0.9228110509230952 0  0.6411254848194414 0.07704872765442942 0  0.3357233162523242 0.1855113224530532 0  0.6730653396610877 0.6393887462324165 0  0.310966987234063 0.6240019765311626 0  0.7368737836204349 0.07457755202327881 0  0.6192316414418171 0.1485238406378594 0  0.5432429670607106 0.678552703844006 0  0.4754371679695679 0.7103946803120881 0  0.07501324890749672 0.3043839897335739 0  0.5358146975860403 0.5688321463205916 0  0.3115271739500156 0.3982137365971444 0  0.3625191397122174 0.0767854603650549 0  0.5024029442563831 0.1264128223758444 0  0.4375 0 0  0.4699946908887376 0.06379961173775725 0  0.9375 0.71875 0  0.9272105898044465 0.635671179608893 0  0.9375 1 0  0.6690971819568612 0.9331530898202766 0  0.1073454944778885 0.7499206387638554 0  0.8699082999280406 0.2232403652524313 0  0.5773118091863964 0.3548027349159383 0  0.1354166666666667 0.1428571428571428 0  0.3125 0 0  0.8241684193077341 0.9257452995055244 0  0.4352314948354036 0.3586940847489378 0  0.4351301473778832 0.5819726043539077 0  0.8073232928518163 0.3419398170341962 0  0.7775949246947366 0.1298519409204575 0  0.6875 0 0  0.7413513991851041 0.457933324954483 0  0.939453125 0.841796875 0  0.5630355154606987 0.8171875156478349 0  0.9345238095238095 0.3461466592368577 0  0.9375 0 0  1 0.0625 0  0.0625 1 0  0 0.9375 0  0.06552178593177167 0.4969053669623468 0  0.1424866619031703 0.4130277709291224 0  0.1275287182444726 0.5422946908002588 0  0.2637686595586339 0.06413888464529549 0  0.2524263535491086 0.1697437503243817 0  0.7367218397988525 0.6888573970660841 0  0.0625 0 0  0 0.0625 0  0.8463594539285995 0.7578283617857982 0  0.3128751192101563 0.2851997374369947 0  0.4015281788351144 0.1806421385113692 0  0.1910251795116588 0.4553332197174453 0  0.287797471442006 0.5222621440543902 0  0.3962628745986055 0.8097380085535307 0  0.3505895299554843 0.7304878890838692 0  0.5019151500495276 0.9356042615328103 0  0.9374389419410134 0.4999931039076005 0  0.3125 1 0  0.1875 1 0  1 0.5625 0  0.4375 1 0  1 0.3125 0  1 0.4375 0  0.8125 0 0  1 0.1875 0  0.5625 0 0  0.1875 0 0  0 0.1875 0  0 0.5625 0  0 0.6875 0  0 0.8125 0  1 0.6875 0  1 0.8125 0  0.8021696218581627 0.6612893947866073 0  0.06154922295426143 0.6239401126946708 0  0.9359375 0.9359375 0  0.4666158024849896 0.7691515918155014 0  0.2318201265217025 0.7064974250277525 0  0.1565954253579966 0.6635489312486841 0  0.1598132503680848 0.7787147500325552 0  0.3146529991605639 0.8510876378205265 0  0.1461873209418733 0.05982804528877814 0  0.06109554988524315 0.2446551776247686 0  0.8054950308560754 0.5564226538848541 0  0.470541749491976 0.8853316336952531 0  0.6948472567465137 0.4042308563372457 0  0.8802828472348889 0.4658893256343853 0  0.6788075634946739 0.7974194205806069 0  0.2155048659603867 0.2428201584940968 0  0.8131223143423806 0.2132171049028394 0  0.4330798005432235 0.6671274900735726 0  0.6015279126162613 0.2187368078743274 0  0.8061636571464289 0.8703766630361714 0  0.7008230445061776 0.3478568388444072 0  0.8638466246958771 0.3147095987735538 0  0.204801534004265 0.8789209409594009 0  0.2449006736431132 0.9424182882803838 0  0.7611268409371427 0.2643056884799992 0  0.7552800864046191 0.7678006649959446 0  0.5983639638906616 0.864113435029236 0  0.1956559506814437 0.577281203577426 0  0.3527670268164207 0.1320469097565204 0  0.7530364577483248 0.3262386077083089 0  0.4535919187979363 0.4690107087451527 0  0.8824869791666666 0.8336588541666666 0  0.8814453125 0.9451171875 0  0.5582987942628019 0.622421666543858 0  0.6817532446064828 0.6939001801354731 0  0.3830295138888889 0.9450968952922078 0  0.4140603937012541 0.05211333372716105 0  0.5535864501303013 0.3060591985391672 0  0.6560130086346878 0.2729726562211558 0  0.890203140221684 0.5948314305427268 0  0.7043857725999024 0.593980890020804 0  0.5105843922695152 0.8016828014338627 0  0.05365910753708378 0.7315110031682004 0  0.616904573672261 0.4621186633436136 0  0.5338511646455415 0.387875898899613 0  0.5231769258947843 0.4477682463140762 0  0.650302973237622 0.7370722302085519 0  0.3927483139621257 0.4662414504529014 0  0.8034595960585199 0.4972538342758211 0  0.7738337841682438 0.9496376207663251 0  0.7193737507158268 0.954685447650112 0  0.482525916480686 0.5528257169991676 0  0.2533501157346781 0.2809495420003238 0  0.3118487924482243 0.5702930126570319 0  0.6257598847669529 0.4104163315430518 0  0.1354166666666667 0.1955605158730158 0  0.04166666666666666 0.15625 0  0.3956448985530264 0.6174149462065157 0  0.8102897701818546 0.3938784238208349 0  0.2641154190013625 0.8344469561943118 0  0.642852220770013 0.5068794586563659 0  0.05271458179508221 0.355846947336007 0  0.7021551360070266 0.8921457280225779 0  0.5692125776683765 0.1328512638850284 0  0.5206162811937602 0.04865158770992991 0  0.6001838442201555 0.04540556991297563 0  0.2597716608242787 0.4118346398477178 0  0.4040584599473195 0.3179589136784675 0  0.1480337679295207 0.8941560631483065 0  0.1344356707112281 0.9466251177415842 0  0.7114696411829317 0.4983917389078826 0  0.7585704698442475 0.5751926345944629 0  0.2189131956390871 0.04022068508159698 0  0.2476935455192043 0.1123642267635843 0  0.185995005654517 0.1365524537205238 0  0.6223414373308711 0.643380839165121 0  0.5732602596637543 0.7190051747306219 0  0.268358222364537 0.6586246524467934 0  0.3265879848129173 0.2369791782191225 0  0.1267095595787346 0.7034787238999181 0  0.1115202922226038 0.6421997933884982 0  0.3128688392940203 0.07260997451790079 0  0.550724900485678 0.9253360991633187 0  0.7142608810459105 0.2384904702214873 0  0.7045869185243887 0.1871826897887429 0  0.890625 0.734375 0  0.953125 0.765625 0  0.2111812642821677 0.8286209446459138 0  0.9590293078204457 0.09375 0  0.953431269039847 0.1435719386408004 0  0.04097069217955424 0.90625 0  0.04656873096015299 0.8564280613591996 0  0.1078743037981226 0.8541621766048062 0  0.8921256962018773 0.1458378233951939 0  0.8521576979194619 0.1084496634207678 0  0.8655663982740958 0.05464346096571447 0  0.04005659640905543 0.09375 0  0.1001448316533417 0.0424677624422826
[...]
<PointData  Scalars="f_14608"> 
<DataArray  type="Float64"  Name="f_14608"  format="ascii">1.0627905195293104e+00  1.0627905195293106e+00  1.0627905195293104e+00  1.0627905195293101e+00  1.0627905195293108e+00  1.0627905195293110e+00  1.0627905195293110e+00  1.0627905195293108e+00  1.0572509958193521e+00  2.0627905195293104e+00  2.0627905195293104e+00  2.0627905195293104e+00  6.2790519529310543e-02  2.0627905195293104e+00  6.2790519529310543e-02  6.2790519529310543e-02  6.2790519529310543e-02  1.0590669379495317e+00  1.0590811338887409e+00  3.5190572308056151e-01  1.7658706733672462e+00  7.4224260393179003e-02  2.0271516461863723e+00  1.7679961032347546e+00  3.5359906071514435e-01  2.0600169187604829e+00  6.0067780024728581e-02  2.0597315119021862e+00  6.3817594414965914e-02  1.0612390913179197e+00  1.0612254201863058e+00  1.8241409297669477e+00  1.1577183164459854e+00  9.2295258065861963e-01  2.4459471340791741e-01  6.8526559432364176e-01  1.8211176869710469e-01  1.0763628749947088e-01  2.0147844538992095e+00  6.7811495412227663e-01  7.6865379674641676e-01  1.7633628465962896e+00  1.7698973007158580e+00  1.7698973007158580e+00  3.5568373834276207e-01  3.5568373834276207e-01  4.4786007029027292e-01  4.6249569863456513e-01  1.3807360247262308e+00  3.5568373834276307e-01  1.7698973007158580e+00  1.7698973007158580e+00  3.5568373834276285e-01  1.7698973007158580e+00  3.5568373834276307e-01  1.7698973007158589e+00  1.7698973007158589e+00  1.7698973007158580e+00  3.5568373834276285e-01  3.5568373834276262e-01  3.5568373834276262e-01  1.5532438744479105e+00  1.9009463459127491e+00  1.5887400110201113e+00  1.7247822160275710e+00  4.4273797054196490e-01  1.8483073212798931e-01  1.8741660088027863e+00  1.6120310668666034e+00  1.8689844137991214e+00  1.0498519976059610e+00  3.7536898742759572e-01  6.5078429334673907e-02  2.0530084998520737e+00  2.0282064028091655e+00  1.0019962419039961e+00  1.3762750646683342e-01  8.0994263331493913e-02  2.4526165575354072e-01  2.7751153620637181e-01  1.9713203453541339e+00  1.8248248707033746e-01  2.0419379614530797e+00  1.1078461170435492e+00  8.1823091687753424e-01  3.9234005467200589e-01  1.0639825896198221e+00  1.7315897531757447e+00  1.0603958505522746e+00  3.9238936456071832e-01  1.2294117463556362e+00  1.9920278036035659e+00  9.6167827283194396e-01  1.7817501193948313e+00  1.7819396799217320e+00  1.2932305883209929e+00  3.4162249528956906e-01  1.0782128498801500e+00  2.0365771909170935e+00  1.7607718768895499e+00  1.9859185016513161e+00  1.6188535139556177e+00  1.7475797936931445e+00  1.6280255194168571e+00  3.7502976401804539e-01  1.6760079671228605e+00  1.9866700520405971e+00  4.5601317654980927e-01  1.4012210697901408e+00  1.3891098701802412e-01  3.0335101799933412e-01  1.4454739518944004e+00  1.1644531305082748e+00  1.8343652052592752e-01  1.3298357313069867e-01  6.2726859825395151e-02  4.3060017238652959e-01  2.0540113129358168e+00  7.3824027070981968e-01  2.0431266069601404e+00  8.1930170418065884e-02  2.0583415182471758e+00  1.3891098701802379e-01  6.5082980438870042e-01  7.9785138122453414e-02  6.8010708716421997e-01  1.0519736748975348e+00  6.8010708716422075e-01  9.1512804141166249e-01  8.1482936361360114e-02  9.2690637134511722e-01  1.9822422027933848e+00  6.6103350010581152e-01  1.3541960264753194e-01  6.6646136611428153e-02  2.0424987172960192e+00  1.9779072454853772e+00  1.7488835226600858e+00  1.6685544728239492e+00  9.0177733457930426e-02  1.4336226402731385e+00  3.3652988913317156e-01  1.4454739518944004e+00  8.5085404727347425e-01  2.3017123116104610e-01  6.7656616388522695e-01  6.8010708716421997e-01  4.6246672485977108e-01  2.7967359462941621e-01  1.6134648984184428e+00  6.4412459729718596e-01  2.0459704601207314e+00  1.9866700520405975e+00  6.1704063547004376e-02  9.5789586975088437e-02  1.1647214867858469e+00  1.8661296103040419e+00  5.1194280514751145e-01  1.3891098701802401e-01  2.0084755293990826e+00  8.1209900521363801e-02  1.7431362488123858e+00  2.0430618936672058e+00  6.8010708716422019e-01  1.4454739518944006e+00  1.4454739518944006e+00  6.8010708716422019e-01  6.7928887461395993e-01  7.1851383618145925e-01  1.8434159164825442e-01  1.9444742768817183e+00  1.5303555850968653e+00  1.5098068040724804e+00  1.4454739518944004e+00  1.4454739518944004e+00  4.5186926867753680e-01  4.8115505481175475e-01  5.6629657946579437e-01  2.6410664187559724e-01  1.2858181740030850e-01  2.0216900678983531e+00  1.5466351789850630e+00  1.4440104326810348e+00  1.4446980863457006e+00  1.9866700520405973e+00  1.9866700520405969e+00  6.8010708716422075e-01  1.4454739518944011e+00  1.9866700520405975e+00  1.4454739518944011e+00  1.3891098701802390e-01  1.9866700520405969e+00  6.8010708716422097e-01  1.9866700520405973e+00  1.9866700520405973e+00  6.8010708716422097e-01  1.3891098701802401e-01  1.3891098701802390e-01  1.3891098701802412e-01  1.3891098701802379e-01  1.2873046007684346e+00  1.4256715400333866e-01  3.4149396904895668e-01  2.0549739603246318e+00  6.8167783027304685e-01  1.5588418623793757e-01  6.8411039089734538e-01  1.9237490007818763e+00  2.0240649395910402e+00  2.0012678424313268e+00  1.8223006552825121e+00  1.8474799757643237e+00  1.6414089472216424e+00  1.8834195053628011e+00  1.2084848612805121e+00  1.3189831831936862e+00  1.2253476633641298e+00  1.6467860885809251e+00  1.5533799298835640e-01  1.6579493192763278e-01  1.3597606645371942e+00  1.9615663289321659e+00  1.5634512133186138e+00  1.9856027327223771e+00  1.2188648878923773e+00  9.1534810975517211e-01  1.2939703720945417e+00  6.9851039086462036e-02  1.1559088398481452e+00  1.5370747167472989e+00  5.9005678143160811e-01  8.4048475913640161e-02  1.7561472783990187e-01  1.9645351613591935e+00  1.7629380453846035e+00  1.9437297514173197e+00  1.2727564562666300e+00  2.8642446601098387e-01  6.2725762115139805e-01  1.1546322945569754e+00  2.0124462490188120e+00  1.9837331312813296e+00  8.5980632859515099e-02  1.5339859609949176e+00  5.8528933020203722e-01  8.7582539657534531e-01  1.7090773217968942e+00  2.8298834309927146e-01  2.0089348235341982e+00  7.5885780691343302e-02  1.7356970062999164e-01  1.2776262668202489e+00  8.4563551344985821e-01  3.8352140206460078e-01  1.2831750392603198e+00  1.9348121563709437e+00  2.0091018769855737e+00  1.1397716341849828e+00  2.0184774344239123e+00  1.6410096248313675e+00  1.8657816126301985e+00  1.6052958306853942e+00  5.0247453897949579e-01  1.0561870036796120e-01  6.4027355446187451e-01  2.6934765655619286e-01  1.7763331846173452e-01  7.3657032146491275e-02  1.3238291864760823e+00  1.5499899650412681e+00  2.0265154212369927e+00  1.9234320657200723e+00  2.0605612608870358e+00  1.8312329193544645e+00  1.9590662903268741e+00  2.0530931911082142e+00  2.0233605720697256e+00  6.1598207575431518e-01  6.7048728076282804e-01  1.8536823824251381e-01  6.1062549695192300e-02  1.7207265661340632e+00  1.2111348367892487e+00  7.6708751021352439e-01  4.3129228346023674e-01  3.5411252436092100e-01  8.1222350882170433e-02  1.3082632754170047e+00  1.3881022597285553e+00  1.6348829467037933e+00  7.3689435224782285e-01  4.8985278943649729e-01  8.2553025090663934e-01  1.2980732947671885e+00  8.1669582877694880e-01  5.8161088646278314e-01  1.8076932131311938e+00  1.8433668088693491e+00  9.6591860422518772e-01  1.3287713823004970e+00  1.9934274758829658e+00  1.6036286298729909e+00  7.5283723445610948e-02  1.5657097476870321e-01  4.2314949571855309e-01  2.7864926070178220e-01  5.3929952727787855e-01  2.0579989842610731e+00  5.9179393648121609e-02  2.0507533533404176e+00  1.9814546925960057e+00  1.4616310173573149e-01  1.4696415561572823e-01  2.0614067450891369e+00  2.2524422792529594e-01  8.1499295641547986e-01  1.3526983769429233e+00  6.9226674310019953e-01  9.8323766650819688e-01  1.8809322484207844e-01  1.9149197750417817e+00  4.2258348197361562e-01  8.3417075377280936e-01  1.6348475778798426e+00  1.1904924478928622e+00  1.8159270883725109e+00  1.7554567693150118e+00  1.9937377501156630e+00  1.8826346995813821e+00  8.1517912694362238e-01  1.8878354009734342e+00  1.9808037984680356e+00  1.0050974435897667e-01  5.8674369466687304e-02  8.8397896298538614e-01  6.3853425656102303e-01  1.8624618091540461e+00  8.5113077836797635e-01  1.8383271938291394e+00  1.9726875288432066e+00  1.4533026468018206e+00  1.3509840104461393e-01  6.7117675107516028e-01  6.8721468594660284e-01  1.4830580715801425e+00  6.8959813483689833e-02  1.3229935039295632e-01  9.5250657527689098e-01  3.9132600543632878e-01  6.2509411249456664e-02  3.6124085987316856e-01  1.3272818024613284e+00  1.2671500334659898e+00  2.0621180934106058e+00  3.5271881442472708e-01  1.6767724797437349e+00  1.9348509628376589e+00  1.5132340548544003e+00  1.3810296667548502e-01  1.0615250113082415e+00  1.0623361820521184e+00  1.4619332807931085e+00  1.0624238137363524e+00  1.0626685448574416e+00  6.6242602915236071e-01  1.5732765641872350e+00  1.6579337485989754e+00  8.3148490642945078e-02  1.3793654368630848e-01  8.6168620555667330e-01  1.4459561428649270e+00  3.5955536111615988e-01  8.0564811238315201e-02  2.0565749044660113e+00  2.9143655840834393e-01  2.0602184442097999e+00  2.5200445730099391e-01  6.8725229519823128e-01  3.9173719566255699e-01  2.8582954231733576e-01  2.6514200912782965e-01  5.8480885466752390e-02  1.6072659473978013e+00  2.0473071313249180e+00  1.8390323914437974e+00  1.4397119393604054e+00  2.0255124857386657e+00  8.5598542466341154e-01  1.1710660026484858e+00  7.2541095265363301e-02  6.1848807009272089e-02  1.0075903598480039e-01  2.0501223295658995e+00  1.2978729468316719e+00  6.1295839441261116e-02  2.1272479691797724e-01  1.8403363989885444e+00  4.8737011407837022e-01  2.0620318301922032e+00  1.4780732790409823e+00  2.0286238508269570e+00  2.0582426037098549e+00  1.7680446215243961e+00  1.9542678029386795e+00  5.7019463362303058e-01  3.1970858179160117e-01  6.9549764719679696e-01  8.6770019751318184e-01  3.5796561601063481e-01  1.1618411985433334e-01  1.3602994541294113e+00  2.0587973734160525e+00  1.3868318024618207e+00  4.1951714031594661e-01  2.0021167082536290e-01  2.0435757999325408e+00  1.8195850598216230e+00  8.6675711013715440e-01  7.2489574911380095e-01  2.0339010500306891e+00  9.7729180853467101e-02  1.4519999368209888e-01  1.1966510014496277e+00  9.3674097012701285e-01  2.2418891531354984e-01  6.9983067758847703e-02  9.8274710357722461e-01  1.8632568153958360e+00  1.7938318628165961e+00  5.9247234925456804e-01  1.0594063434078460e+00  2.0435757999325408e+00  1.4070871834557830e+00  1.4696892707037492e+00  2.0288172424870901e+00  1.9707370386574170e+00  4.1339836502026772e-01  1.6129217108016827e+00  4.7199804562194675e-01  1.9285512234124966e+00  1.8538412114351099e+00  7.1067475362733598e-02  6.5017258233920322e-02  1.5862063569612583e-01  2.1833425187507827e-01  3.8697964735219675e-01  2.3493803629384499e-01  1.9603992590039254e+00  1.8322938724904317e-01  1.0795743412737293e+00  5.0722028650970841e-01  1.8419490329814368e+00  1.1433708777115781e+00  1.2573095995241224e+00  5.9602870745551573e-01  6.3079119380414050e-02  2.0571169008342105e+00  1.6183607525489128e+00  1.3208913144327112e+00  9.9005853663766419e-01  1.8370904938737846e+00  3.5029736718400900e-01  4.0717421651376035e-01  8.3483983221709995e-02  2.0452280560585057e+00  7.0746262096356693e-01  2.3132090722676507e-01  3.2413095022129862e-01  1.3547448277620328e-01  2.7702943794406776e-01  6.0989075693109851e-01  1.2418607760246654e+00  6.2508951143274416e-01  1.4915977388732213e-01  2.0524988600440861e+00  2.0583430981768629e+00  1.9242331235653156e+00  2.0599806711851381e+00  1.8942601318318559e+00  7.2825306134609635e-02  1.0531585875746073e-01  1.8223248056112973e+00  1.0898654953239470e-01  2.3132090722676540e-01  6.0294272672165111e-02  9.4291556477758187e-01  6.9538284211828436e-02  1.7618673300916354e+00  1.6072107424725437e+00  3.8951224348360652e-01  9.8542889704092085e-01  1.1784574801767418e+00  9.6508387204518598e-01  1.8942601318318562e+00  8.7339114450369015e-01  2.0585817736411229e+00  4.7354267731934274e-01  2.0300372263707467e-01  1.6857682618354711e-01  1.3068945854767811e+00  1.5783373254720150e+00  6.8293768297948942e-01  1.8942601318318559e+00  2.0435757999325408e+00  1.9319779593494881e+00  1.7515760922668910e+00  1.5277134256174052e+00  1.2396713721159501e-01  3.6670299930922823e-01  1.6541303988855891e+00  6.8411940912195143e-02  7.8804159362088400e-01  1.7608703307797280e+00  4.5003859158464293e-01  2.0587687788544673e+00  8.2005239126080223e-02  9.9100784540632003e-01  1.8315499597855007e+00  1.9489864188701012e+00  1.1737131927463820e+00  1.4625912349502772e+00  1.1453082046678922e+00  2.0556369965947647e+00  1.9723674435774410e+00  1.5230831605733699e+00  1.8576421125499680e+00  1.8476685482467201e+00  1.5147671929781088e+00  8.9799022585366073e-01  2.4373147546389565e-01  5.8250808214417693e-01  1.5738864397533525e+00  9.2386661729528108e-01  1.2982709192344147e-01  1.4228982817405047e+00  2.0435757999325412e+00  2.0116640256527512e+00  1.8116946580302471e+00  1.8844540841798052e+00  1.3784056694119853e-01  1.0538132979933612e-01  1.7949444934507339e-01  2.2986265122040872e-01  1.2578808415454388e+00  1.9995621251760518e+00  6.8190507234353859e-01  4.5977210727838808e-01  1.3983290646565141e+00  2.5325169591444657e-01  6.8886543386841992e-01  9.5286653087907636e-01  8.0350014232458999e-01  1.9538105337354652e+00  1.8137083656702968e-01  6.7884156508391996e-02  4.4862262880239939e-01  7.9732616878540441e-01  1.3559067975765664e+00  7.6828600111651912e-01  1.9266953010915184e+00  1.6523425960882525e+00  8.5104629762322714e-01  1.2283653553824303e+00  1.9510223795142976e+00  1.9485372540268096e+00  2.0499233032169775e+00  2.0548930462459869e+00  1.9816711523654416e+00  1.1627541687135443e+00  1.9250846938996331e+00  1.8942601318318559e+00  1.2946867051452393e+00  2.0578098419527810e+00  1.0300768479253768e+00  6.2328614946758221e-01  4.2233549817624627e-01  1.5525764523570664e+00  4.2377490004022100e-01  2.0373710753443399e+00  2.7076902271663844e-01  9.2747883624215377e-02  1.4907821769366776e+00  1.5737899572230371e-01  1.9837236548902368e+00  1.6672388196103536e+00  1.9461355691025977e+00  1.4477661597782137e+00  6.0995055614824167e-01  8.2005239126079890e-02  1.9230218641832253e+00  1.3151680140385211e+00  1.0067258008780557e+00  1.1647301833504003e-01  1.8512606267942724e+00  2.5501610837045352e-01  6.0260554476547712e-01  3.4398214395334453e-01  1.2813942664792020e+00  1.6951012213464396e+00  3.0999541246719919e-01  2.0081054755090491e+00  2.0387893312999852e+00  1.7710925268341551e+00  1.6414321010792594e+00  1.6183607525489128e+00  1.5494619332500708e+00  8.2095713400722081e-01  8.9962839570271319e-02  1.1036986856174509e+00  1.9676718394169410e+00  1.5265762125042777e+00  1.6805507963401489e+00  1.6183607525489128e+00  1.6719114295688089e+00  2.7922989582565599e-01  6.6001318423252825e-02  1.7813596217376512e-01  7.5255441888764499e-02  7.1091675303391588e-01  4.4775042984755342e-01  1.6270743237082255e+00  1.4766363097239141e+00  1.2578808415454388e+00  1.2578808415454388e+00  3.6434041435138087e-01  8.6770019751318217e-01  1.7581209273660400e-01  1.8178654904351741e+00  1.8942601318318559e+00  2.3132090722676507e-01  7.7873038556403784e-01  5.6651790073920028e-01  7.5008467215612651e-01  6.0928570005903203e-02  2.2688077344595056e-01  1.8213253040650581e+00  1.3460817069570072e+00  8.2005239126079890e-02  1.9140983522199873e+00  1.9834975697304977e+00  1.2300762798868767e+00  2.0122853785167858e+00  5.5563759929038115e-01  8.8123222025610015e-02  7.2684177472756656e-02  2.0587698713019389e+00  1.5416251410147535e+00  1.8484142699507227e+00  2.0192072366569858e+00  1.7477903551934690e+00  1.3233683527451823e+00  3.7181368674663096e-01  6.4149111144662638e-02  2.0576858923717114e+00  1.0826255163310179e+00  1.2648268205317212e+00  1.2495728624640707e+00  5.7193304740917295e-01  1.5519291098108701e+00  8.4843690870530142e-01  8.6707594467259441e-01  5.0663484312671025e-01  1.2578808415454392e+00  5.0722028650970818e-01  5.0722028650970885e-01  2.3132090722676496e-01  8.6770019751318184e-01  1.2578808415454388e+00  8.6770019751318328e-01  2.3132090722676529e-01  2.0435757999325412e+00  2.3132090722676540e-01  8.2005239126080223e-02  2.3132090722676529e-01  1.2578808415454386e+00  8.6770019751318328e-01  5.0722028650970885e-01  1.6183607525489128e+00  1.2578808415454392e+00  8.6770019751318217e-01  2.0435757999325408e+00  1.8942601318318559e+00  8.2005239126080112e-02  8.2005239126080112e-02  1.6183607525489123e+00  1.6183607525489128e+00  5.0722028650970841e-01  1.6183607525489123e+00  2.0435757999325408e+00  5.0722028650970863e-01  1.6183607525489128e+00  1.8942601318318559e+00  8.2005239126080001e-02  1.2578808415454386e+00  5.0722028650970818e-01  8.6770019751318250e-01  8.6770019751318250e-01  5.0722028650970863e-01  2.0435757999325408e+00  1.8942601318318562e+00  8.2005239126080001e-02  2.3132090722676496e-01  1.3941551997620178e+00  1.7422503227756094e+00  1.3902277177261295e+00  2.0341786346352944e+00  2.0987152265068970e-01  1.2687517195066906e+00  1.0837580295895826e+00  1.1390513855169377e+00  1.5395700759995301e+00  4.4422099984575930e-01  2.0110179254124834e+00  2.0582894500503319e+00  7.8525606947384619e-01  2.2895083788684606e-01  6.8719715179686391e-02  2.4280969509870204e-01  4.9838555062029211e-01  1.9062146349759905e+00  2.0371655969516640e+00  1.8694144053276684e+00  1.5746925643609360e+00  1.8028827257808366e+00  8.2467977257188574e-01  8.8318009863869762e-01  9.6863188161468022e-02  4.2057778514652105e-01  9.3970051323007953e-01  1.8654721297343502e+00  2.0557815941515978e+00  7.3450283416799753e-02  1.9294225952553505e+00  8.5768946923211700e-02  1.4819477484777063e-01  1.7927606704147496e+00  6.0934289422760723e-01  1.9360595198608168e+00  5.9462344603765993e-01  1.4376215741069795e+00  2.0269246424861733e+00  1.9630063973277703e+00  6.0107324460829281e-01  1.6760876751527716e+00  4.3736618505946157e-01  1.4724518862491869e+00  2.0497420728271427e+00  7.2859892277303462e-01  5.3009335016913461e-01  7.8334411293112138e-01  1.9543442508192548e+00  1.8787090061003882e+00  1.6437340941352900e+00  1.8296021950549288e+00  5.1896310290202519e-01  1.9976955193067381e+00  5.4810008349482120e-01  4.6534079370613995e-01  5.6783783712367608e-01  9.4183730800656029e-01  1.0520979886670716e+00  1.3657849291563386e+00  1.0351126764485423e+00  9.4732966370116634e-01  7.4355155410341667e-01  2.0589478378721284e+00  7.6161808723682320e-02  1.9123514925072990e-01  2.7459892777390527e-01  2.0442966579618842e+00  2.4346574779144925e-01  1.9553508552438639e+00  1.8640800446940673e+00  1.6650615959736905e+00  1.6953918020469485e+00  1.3181838848406273e+00  1.3820687671065610e+00  6.7661752602731629e-01  2.0184291976163622e+00  4.2238724064381311e-01  9.2883102416335783e-01  1.4269763839340919e+00  2.0130989381441200e+00  1.6507828802782871e+00  2.7465914343941422e-01  6.1236412262590001e-01  1.9724352494688031e+00  1.1451930381699373e+00  1.7585839466461310e+00  2.8968785925929297e-01  3.2539886269314050e-01  2.0031427487356908e+00  5.2262763393753453e-01  5.9169504625177272e-01  1.0661274080223295e+00  3.0502964867388360e-01  2.3732881109832896e-01  2.1713792206835808e-01  2.2792701959287109e-01  6.4127177361312113e-02  1.8021571813430806e+00  1.5707884011452040e+00  6.0682946310749185e-02  2.0065253444443600e+00  1.3907847559873237e+00  9.2525272224858424e-01  1.3824540654651124e-01  9.5826534243446981e-01  1.6597848098934689e+00  5.9718845604519968e-02  1.0899314176026778e-01  1.9515622615783887e+00  1.8713529488068064e+00  2.0307113644699268e+00  8.2098449594198675e-01  1.0703323259793771e+00  1.0662859266297300e+00  1.7363940424389042e+00  9.2719719178494997e-01  1.4424140243899808e+00  7.3012050398501460e-01  1.5313050939107777e+00  9.2600629252803851e-02  1.6470349009502394e+00  1.9265763658418160e+00  1.5968926196020491e-01  2.0810319516349704e-01  2.7917558397803233e-01  1.5589486883139640e+00  1.13891502529