<?xml version="1.0"?>
<VTKFile type="UnstructuredGrid"  version="0.1"  >
<UnstructuredGrid>
<Piece  NumberOfPoints="15681" NumberOfCells="30848">
<Points>
<DataArray  type="Float64"  NumberOfComponents="3"  format="ascii">0 1 0  0 0 0  1 0 0  1 1 0  0.5 0 0  1 0.5 0  0.5 1 0  0 0.5 0  0.5 0.5 0  0 0.25 0  0.25 0 0  0.25 1 0  0 0.75 0  1 0.25 0  0.75 0 0  1 0.75 0  0.75 1 0  0.7083333333333333 0.2916666666666667 0  0.2916666666666666 0.7083333333333334 0  0.375 0.25 0  0.75 0.625 0  0.2569444444444444 0.4652777777777778 0  0.5366379310344828 0.7535919540229885 0  0.1875 0.1875 0  0.8125 0.8125 0  0.869047619047619 0.375 0  0.1450441919191919 0.6052714646464646 0  0.375 0.8690476190476191 0  0.5526960784313725 0.1825980392156862 0  0.8385416666666666 0.1614583333333334 0  0.1614583333333333 0.8385416666666667 0  0.6736111111111112 0.4652777777777778 0  0.1367521367521368 0.3477564102564102 0  0.6570970491253563 0.8648656830417855 0  0.5102479397556124 0.3386260301221938 0  0.3654513888888889 0.5737847222222222 0  0.6929750044954185 0.1362784921584263 0  0.388576102743835 0.411911725237599 0  0.6091269841269842 0.5942460317460317 0  0.875 0.6875 0  0.427278890279516 0.119889445139758 0  0.8544456845238095 0.5213913690476191 0  0.125 0 0  0 0.125 0  1 0.875 0  0.875 1 0  0.1280008648150532 0.4769292340226777 0  0.2695382451711197 0.3321750950221553 0  0.7031567235715964 0.7447810921428012 0  0.625 0 0  0.375 0 0  0.125 1 0  0.875 0 0  0 0.375 0  0 0.625 0  1 0.375 0  0.375 1 0  1 0.125 0  0 0.875 0  0.625 1 0  1 0.625 0  0.2979288363930608 0.1201429454643536 0  0.410919540229885 0.7484605911330049 0  0.5325041980395562 0.878905151526474 0  0.4831670727569156 0.6331060043826487 0  0.1735997378973042 0.7204747378973043 0  0.2534919507575758 0.5772372159090909 0  0.2633928571428572 0.8876488095238095 0  0.8199404761904761 0.2730654761904762 0  0.75830270586982 0.3919383189517417 0  0.5750282248382511 0.4237522353023667 0  0.6008360210023379 0.2794828358598495 0  0.08163442644334186 0.6821295860397322 0  0.08333333333333333 0.1875 0  0.2028380815996574 0.08844602719988583 0  0.2766521142611967 0.2325436572164097 0  0.90625 0.78125 0  0.890625 0.890625 0  0.7545696325008384 0.8973565441669461 0  0.5625 0.08086590340834317 0  0.09077380952380953 0.09077380952380952 0  0.4610923478694773 0.209034015149656 0  0.7542527598351648 0.5248380520595106 0  0.6459235536037465 0.3619913988405765 0  0.7560381768882634 0.20506142233852 0  0.07073252688172042 0.8125 0  0.0924753097241701 0.9078102849914793 0  0.9292674731182795 0.1875 0  0.9075246902758297 0.09218971500852073 0  0.8125 0.07073252688172045 0  0.2400955776842301 0.7869705776842302 0  0.9121050213379069 0.2781978201831695 0  0.7916878157143976 0.7239689078571988 0  0.9345238095238094 0.4375 0  0.4375 0.9345238095238095 0  0.3725616989755203 0.6651895248862173 0  0.06536271996350887 0.5625 0  0.9348362560379583 0.5625 0  0.456646798987055 0.8277247094351965 0  0.1875 0.9355758238725954 0  0.6169761231634859 0.6939779188977889 0  0.6226854751147515 0.7827911461419014 0  0.3305695598137626 0.7901697871282585 0  0.5865305325818898 0.5101085479043448 0  0.6622701297028378 0.2177663989757395 0  0.1354166666666667 0.2591702279202279 0  0 0.3125 0  0.2094429575680048 0.3936361846162499 0  0.836666296419157 0.607917407161686 0  0.6875 1 0  0.214261555450504 0.6492551722020035 0  0 0.4375 0  0.07731537126068377 0.40625 0  0.3427725432967068 0.4879566233699599 0  0.3550792513951871 0.3331953632609953 0  0.4462473953896857 0.2887834789342508 0  0.4747801464819794 0.417386052030127 0  0.8229836475148948 0.4443292349237342 0  0.7322605135514757 0.8199240278289671 0  0.6756431877205955 0.5468989748126787 0  0.1968419507215863 0.5194573482612496 0  0.3285590277777778 0.9345238095238095 0  0.8125 1 0  0.4198917601920009 0.5134893045331258 0  0.5232405503206691 0.2595791787880157 0  1 0.9375 0  0.1987510870015086 0.3025185951894431 0  0.5625 1 0  0.6005390654136388 0.9228110509230952 0  0.6411254848194414 0.07704872765442942 0  0.3357233162523242 0.1855113224530532 0  0.6730653396610877 0.6393887462324165 0  0.310966987234063 0.6240019765311626 0  0.7368737836204349 0.07457755202327881 0  0.6192316414418171 0.1485238406378594 0  0.5432429670607106 0.678552703844006 0  0.4754371679695679 0.7103946803120881 0  0.07501324890749672 0.3043839897335739 0  0.5358146975860403 0.5688321463205916 0  0.3115271739500156 0.3982137365971444 0  0.3625191397122174 0.0767854603650549 0  0.5024029442563831 0.1264128223758444 0  0.4375 0 0  0.4699946908887376 0.06379961173775725 0  0.9375 0.71875 0  0.9272105898044465 0.635671179608893 0  0.9375 1 0  0.6690971819568612 0.9331530898202766 0  0.1073454944778885 0.7499206387638554 0  0.8699082999280406 0.2232403652524313 0  0.5773118091863964 0.3548027349159383 0  0.1354166666666667 0.1428571428571428 0  0.3125 0 0  0.8241684193077341 0.9257452995055244 0  0.4352314948354036 0.3586940847489378 0  0.4351301473778832 0.5819726043539077 0  0.8073232928518163 0.3419398170341962 0  0.7775949246947366 0.1298519409204575 0  0.6875 0 0  0.7413513991851041 0.457933324954483 0  0.939453125 0.841796875 0  0.5630355154606987 0.8171875156478349 0  0.9345238095238095 0.3461466592368577 0  0.9375 0 0  1 0.0625 0  0.0625 1 0  0 0.9375 0  0.06552178593177167 0.4969053669623468 0  0.1424866619031703 0.4130277709291224 0  0.1275287182444726 0.5422946908002588 0  0.2637686595586339 0.06413888464529549 0  0.2524263535491086 0.1697437503243817 0  0.7367218397988525 0.6888573970660841 0  0.0625 0 0  0 0.0625 0  0.8463594539285995 0.7578283617857982 0  0.3128751192101563 0.2851997374369947 0  0.4015281788351144 0.1806421385113692 0  0.1910251795116588 0.4553332197174453 0  0.287797471442006 0.5222621440543902 0  0.3962628745986055 0.8097380085535307 0  0.3505895299554843 0.7304878890838692 0  0.5019151500495276 0.9356042615328103 0  0.9374389419410134 0.4999931039076005 0  0.3125 1 0  0.1875 1 0  1 0.5625 0  0.4375 1 0  1 0.3125 0  1 0.4375 0  0.8125 0 0  1 0.1875 0  0.5625 0 0  0.1875 0 0  0 0.1875 0  0 0.5625 0  0 0.6875 0  0 0.8125 0  1 0.6875 0  1 0.8125 0  0.8021696218581627 0.6612893947866073 0  0.06154922295426143 0.6239401126946708 0  0.9359375 0.9359375 0  0.4666158024849896 0.7691515918155014 0  0.2318201265217025 0.7064974250277525 0  0.1565954253579966 0.6635489312486841 0  0.1598132503680848 0.7787147500325552 0  0.3146529991605639 0.8510876378205265 0  0.1461873209418733 0.05982804528877814 0  0.06109554988524315 0.2446551776247686 0  0.8054950308560754 0.5564226538848541 0  0.470541749491976 0.8853316336952531 0  0.6948472567465137 0.4042308563372457 0  0.8802828472348889 0.4658893256343853 0  0.6788075634946739 0.7974194205806069 0  0.2155048659603867 0.2428201584940968 0  0.8131223143423806 0.2132171049028394 0  0.4330798005432235 0.6671274900735726 0  0.6015279126162613 0.2187368078743274 0  0.8061636571464289 0.8703766630361714 0  0.7008230445061776 0.3478568388444072 0  0.8638466246958771 0.3147095987735538 0  0.204801534004265 0.8789209409594009 0  0.2449006736431132 0.9424182882803838 0  0.7611268409371427 0.2643056884799992 0  0.7552800864046191 0.7678006649959446 0  0.5983639638906616 0.864113435029236 0  0.1956559506814437 0.577281203577426 0  0.3527670268164207 0.1320469097565204 0  0.7530364577483248 0.3262386077083089 0  0.4535919187979363 0.4690107087451527 0  0.8824869791666666 0.8336588541666666 0  0.8814453125 0.9451171875 0  0.5582987942628019 0.622421666543858 0  0.6817532446064828 0.6939001801354731 0  0.3830295138888889 0.9450968952922078 0  0.4140603937012541 0.05211333372716105 0  0.5535864501303013 0.3060591985391672 0  0.6560130086346878 0.2729726562211558 0  0.890203140221684 0.5948314305427268 0  0.7043857725999024 0.593980890020804 0  0.5105843922695152 0.8016828014338627 0  0.05365910753708378 0.7315110031682004 0  0.616904573672261 0.4621186633436136 0  0.5338511646455415 0.387875898899613 0  0.5231769258947843 0.4477682463140762 0  0.650302973237622 0.7370722302085519 0  0.3927483139621257 0.4662414504529014 0  0.8034595960585199 0.4972538342758211 0  0.7738337841682438 0.9496376207663251 0  0.7193737507158268 0.954685447650112 0  0.482525916480686 0.5528257169991676 0  0.2533501157346781 0.2809495420003238 0  0.3118487924482243 0.5702930126570319 0  0.6257598847669529 0.4104163315430518 0  0.1354166666666667 0.1955605158730158 0  0.04166666666666666 0.15625 0  0.3956448985530264 0.6174149462065157 0  0.8102897701818546 0.3938784238208349 0  0.2641154190013625 0.8344469561943118 0  0.642852220770013 0.5068794586563659 0  0.05271458179508221 0.355846947336007 0  0.7021551360070266 0.8921457280225779 0  0.5692125776683765 0.1328512638850284 0  0.5206162811937602 0.04865158770992991 0  0.6001838442201555 0.04540556991297563 0  0.2597716608242787 0.4118346398477178 0  0.4040584599473195 0.3179589136784675 0  0.1480337679295207 0.8941560631483065 0  0.1344356707112281 0.9466251177415842 0  0.7114696411829317 0.4983917389078826 0  0.7585704698442475 0.5751926345944629 0  0.2189131956390871 0.04022068508159698 0  0.2476935455192043 0.1123642267635843 0  0.185995005654517 0.1365524537205238 0  0.6223414373308711 0.643380839165121 0  0.5732602596637543 0.7190051747306219 0  0.268358222364537 0.6586246524467934 0  0.3265879848129173 0.2369791782191225 0  0.1267095595787346 0.7034787238999181 0  0.1115202922226038 0.6421997933884982 0  0.3128688392940203 0.07260997451790079 0  0.550724900485678 0.9253360991633187 0  0.7142608810459105 0.2384904702214873 0  0.7045869185243887 0.1871826897887429 0  0.890625 0.734375 0  0.953125 0.765625 0  0.2111812642821677 0.8286209446459138 0  0.9590293078204457 0.09375 0  0.953431269039847 0.1435719386408004 0  0.04097069217955424 0.90625 0  0.04656873096015299 0.8564280613591996 0  0.1078743037981226 0.8541621766048062 0  0.8921256962018773 0.1458378233951939 0  0.8521576979194619 0.1084496634207678 0  0.8655663982740958 0.05464346096571447 0  0.04005659640905543 0.09375 0  0.1001448316533417 0.0424677624422826
[...]
<PointData  Scalars="f_14608"> 
<DataArray  type="Float64"  Name="f_14608"  format="ascii">6.9098300562505000e-01  6.9098300562505022e-01  6.9098300562505000e-01  6.9098300562504977e-01  6.9098300562505044e-01  6.9098300562505066e-01  6.9098300562505066e-01  6.9098300562505044e-01  6.9044321834309785e-01  1.6909830056250503e+00  1.6909830056250503e+00  1.6909830056250503e+00  -3.0901699437494978e-01  1.6909830056250503e+00  -3.0901699437494978e-01  -3.0901699437494978e-01  -3.0901699437494978e-01  6.9091991075429848e-01  6.9093411991921994e-01  -1.6170376501919978e-02  1.3977944293668561e+00  -2.9361496730626541e-01  1.6592163842297720e+00  1.3984058367995786e+00  -1.5991258574598488e-02  1.6905992781440207e+00  -3.0911861318044431e-01  1.6903138229579922e+00  -3.0481223252482714e-01  6.9125499489150666e-01  6.9124146153532784e-01  1.4568105798621154e+00  7.8832510057109595e-01  5.5352635883240675e-01  -1.2264961549606665e-01  3.1807515257991481e-01  -1.8739654644458292e-01  -2.5949715877558011e-01  1.6476413563020154e+00  3.0847316650837420e-01  3.9914222973525992e-01  1.3942650608548861e+00  1.3980897868115978e+00  1.3980897868115978e+00  -1.6123775561498244e-02  -1.6123775561498244e-02  7.8504208882249640e-02  9.4413281277484828e-02  1.0123735117424129e+00  -1.6123775561497244e-02  1.3980897868115978e+00  1.3980897868115978e+00  -1.6123775561497466e-02  1.3980897868115978e+00  -1.6123775561497244e-02  1.3980897868115987e+00  1.3980897868115987e+00  1.3980897868115978e+00  -1.6123775561497466e-02  -1.6123775561497689e-02  -1.6123775561497689e-02  1.1834957517155427e+00  1.5329779937282235e+00  1.2192745222715942e+00  1.3576761720236681e+00  7.3562501275209274e-02  -1.8309669846525597e-01  1.5042076657231780e+00  1.2428923554184963e+00  1.5008833787525167e+00  6.8285890710526742e-01  7.5996197308778289e-03  -3.0519461753995553e-01  1.6824139970197614e+00  1.6577306741922269e+00  6.3334754886039257e-01  -2.3272438999090167e-01  -2.8976018831849026e-01  -1.2488375897434603e-01  -9.2639601181087730e-02  1.6003097675389166e+00  -1.8583026128044647e-01  1.6740051131123943e+00  7.4039635074236598e-01  4.4916490376364249e-01  2.1589178664877948e-02  6.9299268796341396e-01  1.3608390075151646e+00  6.8940622574421351e-01  2.1638433375987670e-02  8.6038677245290252e-01  1.6217698111679937e+00  5.9282198886955673e-01  1.4113175507881106e+00  1.4115072889070335e+00  9.2572855454205849e-01  -2.8811974369379281e-02  7.0777434973462539e-01  1.6678271486602960e+00  1.3899397935747448e+00  1.6182857089267073e+00  1.2504804572510471e+00  1.3789820846935887e+00  1.2610931600119430e+00  6.5354843730379281e-03  1.3063212967363136e+00  1.6148625381363368e+00  8.7601522702361379e-02  1.0322715393959461e+00  -2.3289652688623619e-01  -6.5131687465559890e-02  1.0736664379901399e+00  7.9421765969590019e-01  -1.8378583993085379e-01  -2.3459817392195603e-01  -3.0487709287294518e-01  6.3670245812922979e-02  1.6853101781127657e+00  3.6907611266804125e-01  1.6757698261558733e+00  -2.8650810627431211e-01  1.6878139722010537e+00  -2.3289652688623652e-01  2.8391388394091954e-01  -2.8802285898422303e-01  3.0829957325995960e-01  6.8315408485132612e-01  3.0829957325996038e-01  5.4488475524399949e-01  -2.8880555320370710e-01  5.5807561228739611e-01  1.6146505893852054e+00  2.9340789917798599e-01  -2.3507402748279815e-01  -3.0251829292234483e-01  1.6751290727514943e+00  1.6103395293764717e+00  1.3784791739965898e+00  1.3016485973973224e+00  -2.7737344407064196e-01  1.0633340539911440e+00  -3.2846543244512347e-02  1.0736664379901399e+00  4.8040042159093643e-01  -1.4047788457011195e-01  3.0621009757924694e-01  3.0829957325995960e-01  9.1965928029920735e-02  -9.0394394397507044e-02  1.2435619274957701e+00  2.7687690170651974e-01  1.6756492343872522e+00  1.6148625381363368e+00  -3.0904213672965869e-01  -2.7141292478189638e-01  7.9773632558166985e-01  1.4973965426705500e+00  1.4203331359109012e-01  -2.3289652688623630e-01  1.6406444893591863e+00  -2.8976052697513682e-01  1.3744978356313040e+00  1.6725562217934569e+00  3.0829957325995982e-01  1.0736664379901404e+00  1.0736664379901404e+00  3.0829957325995982e-01  3.0887108109682410e-01  3.4931911134385762e-01  -1.8502959043196793e-01  1.5738198776064445e+00  1.1610126293300527e+00  1.1415781924425528e+00  1.0736664379901399e+00  1.0736664379901399e+00  8.2310241809336521e-02  1.1308715064556314e-01  1.9757807695692789e-01  -1.0441507056045926e-01  -2.3899773778930539e-01  1.6530739137225228e+00  1.1786303711554349e+00  1.0735711476195868e+00  1.0742240424455582e+00  1.6148625381363368e+00  1.6148625381363368e+00  3.0829957325996038e-01  1.0736664379901408e+00  1.6148625381363368e+00  1.0736664379901408e+00  -2.3289652688623641e-01  1.6148625381363368e+00  3.0829957325996060e-01  1.6148625381363368e+00  1.6148625381363368e+00  3.0829957325996060e-01  -2.3289652688623630e-01  -2.3289652688623641e-01  -2.3289652688623619e-01  -2.3289652688623652e-01  9.1861530324689211e-01  -2.2797896213868310e-01  -2.9849597554350717e-02  1.6868926356917378e+00  3.1311401727959387e-01  -2.1328106874519692e-01  3.1450405879944365e-01  1.5544238081937296e+00  1.6530464626034811e+00  1.6305277917069954e+00  1.4538080266681273e+00  1.4779146436013990e+00  1.2738336213823565e+00  1.5139320575792885e+00  8.3977962398143324e-01  9.4999506648615306e-01  8.5593400374427409e-01  1.2794462117151388e+00  -2.1296724625462521e-01  -2.0426015708516757e-01  9.9195052033122921e-01  1.5920791294026377e+00  1.1933627150389923e+00  1.6148085773822545e+00  8.5019231569482723e-01  5.4650046305803912e-01  9.2466636722614082e-01  -2.9865631036062873e-01  7.8646254348566524e-01  1.1687913472425626e+00  2.2319813117314083e-01  -2.8627705754215960e-01  -1.9555239004917802e-01  1.5974273851848588e+00  1.3950281908706601e+00  1.5730649108336010e+00  9.0205689279917545e-01  -8.1057887269593551e-02  2.5925171372696998e-01  7.8494037428776664e-01  1.6448112245601156e+00  1.6153144998790001e+00  -2.8483590451158941e-01  1.1669303272825056e+00  2.1825649572994879e-01  5.0896429492673834e-01  1.3410184871419997e+00  -8.4026808643595227e-02  1.6404969533565548e+00  -2.9505668380384376e-01  -1.9737296131698745e-01  9.1076805687559037e-01  4.7716984852002620e-01  1.6048390254027774e-02  9.1598252064877406e-01  1.5648242422543195e+00  1.6378909222935236e+00  7.7256697987308431e-01  1.6498500305038655e+00  1.2716799904848954e+00  1.4986339232924781e+00  1.2345677464952309e+00  1.3255574891567712e-01  -2.6369440850862308e-01  2.6952481404353323e-01  -1.0149064520267786e-01  -1.9026257930555018e-01  -2.9383805581005557e-01  9.5329094397750569e-01  1.1788609357801521e+00  1.6589476389391153e+00  1.5553998461867253e+00  1.6894475090409014e+00  1.4612205337649278e+00  1.5890346439530059e+00  1.6857176523886401e+00  1.6556656162292196e+00  2.4793109926152898e-01  3.0212204382410990e-01  -1.8429687318813950e-01  -3.0867149210891004e-01  1.3502969225202934e+00  8.4087766258692764e-01  3.9853644431118512e-01  6.2326311602041690e-02  -1.5878143834105941e-02  -2.8976081318718738e-01  9.3870379156270889e-01  1.0167178314315350e+00  1.2637022467598111e+00  3.6551003675991095e-01  1.1867192829116986e-01  4.5499762541544148e-01  9.2754092664656773e-01  4.4618032366771232e-01  2.1049585533769299e-01  1.4363000279216032e+00  1.4720166946805706e+00  5.9449647464583677e-01  9.5738213208404399e-01  1.6237912362495455e+00  1.2320877092993419e+00  -2.9491438453302538e-01  -2.1209407540832390e-01  5.4280158144472131e-02  -8.9545256078914739e-02  1.6914481832879211e-01  1.6906602084674034e+00  -3.0829231760279002e-01  1.6799909591393334e+00  1.6105647261744023e+00  -2.2490196688590938e-01  -2.2415854827331871e-01  1.6905135664236974e+00  -1.4602576456111188e-01  4.4589328337777562e-01  9.8415405202319295e-01  3.2475630437399733e-01  6.1373931311756702e-01  -1.8089209003742032e-01  1.5478520847314443e+00  5.3114970910252295e-02  4.6539122757220835e-01  1.2671472636579117e+00  8.2269037758904273e-01  1.4462466294749539e+00  1.3843671736921297e+00  1.6240624166577586e+00  1.5136278215132648e+00  4.4512810223101251e-01  1.5170143589054212e+00  1.6096501626356952e+00  -2.6931475942313382e-01  -3.0928106629067270e-01  5.1485590337418385e-01  2.6934168498491950e-01  1.4942789597112898e+00  4.8154005067158928e-01  1.4700548006620051e+00  1.6037477150678279e+00  1.0822334946609307e+00  -2.3463886641889067e-01  3.0009779977045475e-01  3.1611942101629575e-01  1.1132383545909932e+00  -2.9832065684839593e-01  -2.3880321145345723e-01  5.8475980133402794e-01  2.1669834461047133e-02  -3.0865473874449600e-01  -9.8833877743782217e-03  9.5838816999505327e-01  9.0025878785066760e-01  1.6910999812043921e+00  -1.4527751330178671e-02  1.3072689813242162e+00  1.5646483707207068e+00  1.1435220605775207e+00  -2.3304654584388981e-01  6.9041800592428337e-01  6.9125490423519764e-01  1.0908554658261926e+00  6.9131557420330580e-01  6.9107929359810338e-01  2.9077345302383667e-01  1.2042268849504139e+00  1.2895131109229740e+00  -2.8498227789298886e-01  -2.3340916525444635e-01  4.9247964854023646e-01  1.0791126367545623e+00  -1.1537016835500125e-02  -2.8973766509032373e-01  1.6892480052325833e+00  -7.5529187436805409e-02  1.6897011138955287e+00  -1.1508200723094661e-01  3.1615652337927119e-01  2.3614849362470811e-02  -8.1992427543382332e-02  -1.0269677967836145e-01  -3.0881581651202522e-01  1.2385639685652321e+00  1.6796333901138911e+00  1.4714177680351073e+00  1.0725876469682061e+00  1.6554539464736142e+00  4.8861969360732210e-01  8.0211877736749715e-01  -2.9562647304988621e-01  -3.0596708550847868e-01  -2.6675129660763419e-01  1.6803167549080873e+00  9.2791134188518953e-01  -3.0607300996512671e-01  -1.5722990141016085e-01  1.4733609852260323e+00  1.1710273085980992e-01  1.6909158926745189e+00  1.1070643226144361e+00  1.6603562081652090e+00  1.6891724217368815e+00  1.4010399801349740e+00  1.5853440818662512e+00  1.9941945278164774e-01  -4.8378783822177973e-02  3.2705446611849909e-01  4.9589268360892147e-01  -1.0864022088341141e-02  -2.5252074929972335e-01  9.9125909412567725e-01  1.6897266187851012e+00  1.0176711799731322e+00  5.2458624522127663e-02  -1.6793500343439638e-01  1.6717682860282808e+00  1.4494007336994683e+00  4.9992227847748094e-01  3.5787943055598948e-01  1.6656129637591830e+00  -2.6959038803111335e-01  -2.2257205526340723e-01  8.2810579370909498e-01  5.6697103107037283e-01  -1.4460543566523276e-01  -2.9815381789369377e-01  6.1402790934412477e-01  1.4952892579348782e+00  1.4259411001205913e+00  2.2321683505228498e-01  6.9066470256244195e-01  1.6717682860282808e+00  1.0369366358638432e+00  1.1027289409381609e+00  1.6584919698616687e+00  1.5995979535980087e+00  4.3424469587770347e-02  1.2440380553589174e+00  1.0107236527546071e-01  1.5574650036208337e+00  1.4835398891450784e+00  -2.9865809228392010e-01  -3.0591898318710448e-01  -2.0844998309988169e-01  -1.5157303256562366e-01  1.5488313624292812e-02  -1.3288082587956032e-01  1.5927729037069500e+00  -1.8455424069442955e-01  7.0985810934014792e-01  1.3541277260544804e-01  1.4746399640652268e+00  7.7266982746110890e-01  8.8757151313273086e-01  2.2574401709813394e-01  -3.0777656517097296e-01  1.6872736979258978e+00  1.2465532386446525e+00  9.5164236225693322e-01  6.2316906657196758e-01  1.4660803086259941e+00  -1.7868223570319985e-02  3.7439434526473032e-02  -2.8532771863571676e-01  1.6752076371925839e+00  3.3859792826265189e-01  -1.4048660667749524e-01  -4.7120641646374424e-02  -2.3322347904171203e-01  -9.3466212246004765e-02  2.4144979417163145e-01  8.7257779756989540e-01  2.5537209473726824e-01  -2.1984472800291754e-01  1.6849061681558257e+00  1.6904816176738635e+00  1.5570594438980880e+00  1.6890181686513741e+00  1.5224526179275957e+00  -2.9793943803508144e-01  -2.6516787280575349e-01  1.4520024426081362e+00  -2.5918524662550096e-01  -1.4048660667749491e-01  -3.0858324860440478e-01  5.7280188285180200e-01  -2.9802205430157414e-01  1.3922391178546976e+00  1.2375011197026211e+00  2.1740773802860068e-02  6.1784467221951833e-01  8.0943491464771122e-01  5.9783329045085776e-01  1.5224526179275957e+00  5.0300143337231218e-01  1.6905435319007318e+00  1.0384095693763344e-01  -1.6757450408834307e-01  -2.0140061515796623e-01  9.3784759651233629e-01  1.2111197030730041e+00  3.1608992364121735e-01  1.5224526179275957e+00  1.6717682860282808e+00  1.5607642015887286e+00  1.3805552587269967e+00  1.1568410786667294e+00  -2.4627931894601282e-01  -2.8999703938653921e-03  1.2862836648138900e+00  -3.0273163138850229e-01  4.1884974923664353e-01  1.3919441802164723e+00  8.1397654189504204e-02  1.6904482026600578e+00  -2.8980227477818010e-01  6.2159563249622107e-01  1.4602397127088393e+00  1.5777667450913480e+00  8.0268952809162131e-01  1.0926929886422674e+00  7.7847948099363840e-01  1.6853440701376918e+00  1.6025735077984884e+00  1.1547733287517150e+00  1.4900742051351468e+00  1.4798647062396735e+00  1.1464472012481643e+00  5.3008635037394269e-01  -1.2750650789638016e-01  2.1298903061404706e-01  1.2043913803965971e+00  5.5280773868084609e-01  -2.3816838668880128e-01  1.0535529924797131e+00  1.6717682860282808e+00  1.6426946606993924e+00  1.4426499720767418e+00  1.5160346715007693e+00  -2.2976317227362411e-01  -2.6582772126013521e-01  -1.9097703238678063e-01  -1.4121457808751398e-01  8.8607332764117841e-01  1.6303492524064507e+00  3.1241133252716674e-01  9.0800222714901596e-02  1.0309385661340065e+00  -1.1783872718328409e-01  3.1893083923028859e-01  5.8578702379181691e-01  4.3228680020173532e-01  1.5864781724828405e+00  -1.9001289885784722e-01  -3.0282108153769005e-01  8.1432153117357881e-02  4.3024141566944218e-01  9.8499092527589960e-01  3.9737027254009111e-01  1.5584181183214911e+00  1.2838097073120460e+00  4.8207948056037064e-01  8.5975243116373767e-01  1.5808480419833804e+00  1.5785785988754850e+00  1.6795131371883174e+00  1.6842231387470894e+00  1.6138178570985935e+00  7.9114384566246276e-01  1.5573408232765904e+00  1.5224526179275957e+00  9.2490754350709758e-01  1.6866475566215748e+00  6.5873341154108334e-01  2.5497948204944387e-01  5.3148029595442500e-02  1.1834994374710772e+00  5.2264610396530881e-02  1.6701723127591577e+00  -9.9605767048082883e-02  -2.7854491635509976e-01  1.1208022234418766e+00  -2.1095296366403449e-01  1.6163680622421925e+00  1.2974006946460934e+00  1.5750071120323710e+00  1.0794005003826210e+00  2.4220028039591271e-01  -2.8980227477818044e-01  1.5529654450412593e+00  9.4834182244810938e-01  6.3704650685291875e-01  -2.5134135480252229e-01  1.4834375465431471e+00  -1.1416922841136029e-01  2.3567635981189827e-01  -2.4506535291696056e-02  9.1154952150672397e-01  1.3269727395710107e+00  -5.9931440735334185e-02  1.6374843623448929e+00  1.6676010046326011e+00  1.4008788143731021e+00  1.2703483222244116e+00  1.2465532386446525e+00  1.1825541798098171e+00  4.5401387759969009e-01  -2.7928470758572005e-01  7.3467563185820495e-01  1.5965340633940825e+00  1.1583931224796926e+00  1.3103159594074798e+00  1.2465532386446525e+00  1.3015873480948883e+00  -9.0715797886101915e-02  -3.0458997397704252e-01  -1.8922707003138448e-01  -2.9515729275342467e-01  3.4170883581659611e-01  8.0224459878659546e-02  1.2566500549706645e+00  1.1066651926018967e+00  8.8607332764117841e-01  8.8607332764117841e-01  -5.2673043866135940e-03  4.9589268360892180e-01  -1.9526013860931427e-01  1.4465674623042490e+00  1.5224526179275957e+00  -1.4048660667749524e-01  4.0878125453415304e-01  1.9835865756320936e-01  3.8172631652300459e-01  -3.0644410899762298e-01  -1.4278054583839092e-01  1.4514980353045253e+00  9.7850245711117245e-01  -2.8980227477818044e-01  1.5427082537966645e+00  1.6124688711617077e+00  8.5984620879199114e-01  1.6431435919020332e+00  1.8419454423237372e-01  -2.8165540229045027e-01  -2.9573429565513087e-01  1.6901246444827200e+00  1.1722291120308637e+00  1.4794719601847202e+00  1.6498641877687668e+00  1.3798104985057675e+00  9.5528320273936507e-01  2.2214334817092763e-03  -3.0665042062247810e-01  1.6903806899264446e+00  7.1419334124903733e-01  8.9437350779077918e-01  8.7846578519046048e-01  2.0112357774922396e-01  1.1811192493657150e+00  4.7739445672536907e-01  4.9596178886330361e-01  1.3550049128252276e-01  8.8607332764117885e-01  1.3541277260544782e-01  1.3541277260544848e-01  -1.4048660667749535e-01  4.9589268360892153e-01  8.8607332764117841e-01  4.9589268360892291e-01  -1.4048660667749502e-01  1.6717682860282808e+00  -1.4048660667749491e-01  -2.8980227477818010e-01  -1.4048660667749502e-01  8.8607332764117819e-01  4.9589268360892291e-01  1.3541277260544848e-01  1.2465532386446525e+00  8.8607332764117885e-01  4.9589268360892180e-01  1.6717682860282808e+00  1.5224526179275957e+00  -2.8980227477818021e-01  -2.8980227477818021e-01  1.2465532386446521e+00  1.2465532386446525e+00  1.3541277260544804e-01  1.2465532386446521e+00  1.6717682860282808e+00  1.3541277260544826e-01  1.2465532386446525e+00  1.5224526179275957e+00  -2.8980227477818032e-01  8.8607332764117819e-01  1.3541277260544782e-01  4.9589268360892219e-01  4.9589268360892214e-01  1.3541277260544826e-01  1.6717682860282808e+00  1.5224526179275957e+00  -2.8980227477818032e-01  -1.4048660667749535e-01  1.0256777741214902e+00  1.3727848511574543e+00  1.0229032096136883e+00  1.6630054353704844e+00  -1.5812063826227543e-01  8.9768905884055283e-01  7.1500404404598883e-01  7.7027801483781644e-01  1.1703184030444465e+00  7.4168341306222296e-02  1.6396292927755918e+00  1.6870183147808444e+00  4.1534738874271798e-01  -1.4153768085174817e-01  -3.0152426597389809e-01  -1.2833453976844322e-01  1.2793248251549030e-01  1.5355903010964127e+00  1.6664910746994941e+00  1.4995304691477778e+00  1.2063206892606446e+00  1.4335403280401271e+00  4.5618163908578085e-01  5.1213351397622220e-01  -2.7311101876217059e-01  5.3655860420599048e-02  5.7040478274034367e-01  1.4984742950606773e+00  1.6883037591847756e+00  -2.9505340462008828e-01  1.5608325778455447e+00  -2.8186596258731750e-01  -2.1896563942013242e-01  1.4216131458659889e+00  2.3978796264075053e-01  1.5658822884395640e+00  2.2617388343840752e-01  1.0698580451042521e+00  1.6575214119714263e+00  1.5931667304930259e+00  2.3362797993763312e-01  1.3086883478994369e+00  6.9275144864401020e-02  1.1035546119098925e+00  1.6822388772696284e+00  3.5865221696627769e-01  1.6173704829986851e-01  4.1511969400425547e-01  1.5861898724287868e+00  1.5100549955384674e+00  1.2750930577663966e+00  1.4600286322603500e+00  1.4782511831111284e-01  1.6290568714081888e+00  1.7924875337153892e-01  9.5520479888765150e-02  1.9846635589073530e-01  5.7125475088174049e-01  6.8498660086293295e-01  9.9713053487995040e-01  6.6668047389124119e-01  5.7856696129354590e-01  3.7330388321491931e-01  1.6905582796768539e+00  -2.9312488930244207e-01  -1.7756939428304699e-01  -9.4573173506303149e-02  1.6752834062309547e+00  -1.2356191958521281e-01  1.5870998514098251e+00  1.4941804718994538e+00  1.2950842527760154e+00  1.3249442058495970e+00  9.4828703078394339e-01  1.0118318239266810e+00  3.0635023415501006e-01  1.6512520366207533e+00  5.4096339143179087e-02  5.5898549367034045e-01  1.0583026781112157e+00  1.6418706192754355e+00  1.2832711025762096e+00  -9.3024352559155463e-02  2.4241598780558132e-01  1.6052506131570965e+00  7.7591495840158353e-01  1.3888562847734551e+00  -7.8143825800429501e-02  -4.5136576908258133e-02  1.6349195592834274e+00  1.5551333386556010e-01  2.2166270366037516e-01  6.9715497063135323e-01  -6.5072878036271806e-02  -1.3377708457695187e-01  -1.5272648190685234e-01  -1.4208199570163724e-01  -3.0712647460572351e-01  1.4328114620907868e+00  1.1993391208358553e+00  -3.0817561105303343e-01  1.6393077467494708e+00  1.0239242376846480e+00  5.5661990745946754e-01  -2.3054838947705780e-01  5.8930855802345128e-01  1.2925817880699297e+00  -3.0872997430819221e-01  -2.5920279146054453e-01  1.5811910559627316e+00  1.5006336704576813e+00  1.6594164371689404e+00  4.5013449117735876e-01  6.9965008399119533e-01  6.9713442389666358e-01  1.3649541083333245e+00  5.5794807670972968e-01  1.0735770284869557e+00  3.5854463988548868e-01 