<?xml version="1.0"?>
<VTKFile type="UnstructuredGrid"  version="0.1"  >
<UnstructuredGrid>
<Piece  NumberOfPoints="15681" NumberOfCells="30848">
<Points>
<DataArray  type="Float64"  NumberOfComponents="3"  format="ascii">0 1 0  0 0 0  1 0 0  1 1 0  0.5 0 0  1 0.5 0  0.5 1 0  0 0.5 0  0.5 0.5 0  0 0.25 0  0.25 0 0  0.25 1 0  0 0.75 0  1 0.25 0  0.75 0 0  1 0.75 0  0.75 1 0  0.7083333333333333 0.2916666666666667 0  0.2916666666666666 0.7083333333333334 0  0.375 0.25 0  0.75 0.625 0  0.2569444444444444 0.4652777777777778 0  0.5366379310344828 0.7535919540229885 0  0.1875 0.1875 0  0.8125 0.8125 0  0.869047619047619 0.375 0  0.1450441919191919 0.6052714646464646 0  0.375 0.8690476190476191 0  0.5526960784313725 0.1825980392156862 0  0.8385416666666666 0.1614583333333334 0  0.1614583333333333 0.8385416666666667 0  0.6736111111111112 0.4652777777777778 0  0.1367521367521368 0.3477564102564102 0  0.6570970491253563 0.8648656830417855 0  0.5102479397556124 0.3386260301221938 0  0.3654513888888889 0.5737847222222222 0  0.6929750044954185 0.1362784921584263 0  0.388576102743835 0.411911725237599 0  0.6091269841269842 0.5942460317460317 0  0.875 0.6875 0  0.427278890279516 0.119889445139758 0  0.8544456845238095 0.5213913690476191 0  0.125 0 0  0 0.125 0  1 0.875 0  0.875 1 0  0.1280008648150532 0.4769292340226777 0  0.2695382451711197 0.3321750950221553 0  0.7031567235715964 0.7447810921428012 0  0.625 0 0  0.375 0 0  0.125 1 0  0.875 0 0  0 0.375 0  0 0.625 0  1 0.375 0  0.375 1 0  1 0.125 0  0 0.875 0  0.625 1 0  1 0.625 0  0.2979288363930608 0.1201429454643536 0  0.410919540229885 0.7484605911330049 0  0.5325041980395562 0.878905151526474 0  0.4831670727569156 0.6331060043826487 0  0.1735997378973042 0.7204747378973043 0  0.2534919507575758 0.5772372159090909 0  0.2633928571428572 0.8876488095238095 0  0.8199404761904761 0.2730654761904762 0  0.75830270586982 0.3919383189517417 0  0.5750282248382511 0.4237522353023667 0  0.6008360210023379 0.2794828358598495 0  0.08163442644334186 0.6821295860397322 0  0.08333333333333333 0.1875 0  0.2028380815996574 0.08844602719988583 0  0.2766521142611967 0.2325436572164097 0  0.90625 0.78125 0  0.890625 0.890625 0  0.7545696325008384 0.8973565441669461 0  0.5625 0.08086590340834317 0  0.09077380952380953 0.09077380952380952 0  0.4610923478694773 0.209034015149656 0  0.7542527598351648 0.5248380520595106 0  0.6459235536037465 0.3619913988405765 0  0.7560381768882634 0.20506142233852 0  0.07073252688172042 0.8125 0  0.0924753097241701 0.9078102849914793 0  0.9292674731182795 0.1875 0  0.9075246902758297 0.09218971500852073 0  0.8125 0.07073252688172045 0  0.2400955776842301 0.7869705776842302 0  0.9121050213379069 0.2781978201831695 0  0.7916878157143976 0.7239689078571988 0  0.9345238095238094 0.4375 0  0.4375 0.9345238095238095 0  0.3725616989755203 0.6651895248862173 0  0.06536271996350887 0.5625 0  0.9348362560379583 0.5625 0  0.456646798987055 0.8277247094351965 0  0.1875 0.9355758238725954 0  0.6169761231634859 0.6939779188977889 0  0.6226854751147515 0.7827911461419014 0  0.3305695598137626 0.7901697871282585 0  0.5865305325818898 0.5101085479043448 0  0.6622701297028378 0.2177663989757395 0  0.1354166666666667 0.2591702279202279 0  0 0.3125 0  0.2094429575680048 0.3936361846162499 0  0.836666296419157 0.607917407161686 0  0.6875 1 0  0.214261555450504 0.6492551722020035 0  0 0.4375 0  0.07731537126068377 0.40625 0  0.3427725432967068 0.4879566233699599 0  0.3550792513951871 0.3331953632609953 0  0.4462473953896857 0.2887834789342508 0  0.4747801464819794 0.417386052030127 0  0.8229836475148948 0.4443292349237342 0  0.7322605135514757 0.8199240278289671 0  0.6756431877205955 0.5468989748126787 0  0.1968419507215863 0.5194573482612496 0  0.3285590277777778 0.9345238095238095 0  0.8125 1 0  0.4198917601920009 0.5134893045331258 0  0.5232405503206691 0.2595791787880157 0  1 0.9375 0  0.1987510870015086 0.3025185951894431 0  0.5625 1 0  0.6005390654136388 0.9228110509230952 0  0.6411254848194414 0.07704872765442942 0  0.3357233162523242 0.1855113224530532 0  0.6730653396610877 0.6393887462324165 0  0.310966987234063 0.6240019765311626 0  0.7368737836204349 0.07457755202327881 0  0.6192316414418171 0.1485238406378594 0  0.5432429670607106 0.678552703844006 0  0.4754371679695679 0.7103946803120881 0  0.07501324890749672 0.3043839897335739 0  0.5358146975860403 0.5688321463205916 0  0.3115271739500156 0.3982137365971444 0  0.3625191397122174 0.0767854603650549 0  0.5024029442563831 0.1264128223758444 0  0.4375 0 0  0.4699946908887376 0.06379961173775725 0  0.9375 0.71875 0  0.9272105898044465 0.635671179608893 0  0.9375 1 0  0.6690971819568612 0.9331530898202766 0  0.1073454944778885 0.7499206387638554 0  0.8699082999280406 0.2232403652524313 0  0.5773118091863964 0.3548027349159383 0  0.1354166666666667 0.1428571428571428 0  0.3125 0 0  0.8241684193077341 0.9257452995055244 0  0.4352314948354036 0.3586940847489378 0  0.4351301473778832 0.5819726043539077 0  0.8073232928518163 0.3419398170341962 0  0.7775949246947366 0.1298519409204575 0  0.6875 0 0  0.7413513991851041 0.457933324954483 0  0.939453125 0.841796875 0  0.5630355154606987 0.8171875156478349 0  0.9345238095238095 0.3461466592368577 0  0.9375 0 0  1 0.0625 0  0.0625 1 0  0 0.9375 0  0.06552178593177167 0.4969053669623468 0  0.1424866619031703 0.4130277709291224 0  0.1275287182444726 0.5422946908002588 0  0.2637686595586339 0.06413888464529549 0  0.2524263535491086 0.1697437503243817 0  0.7367218397988525 0.6888573970660841 0  0.0625 0 0  0 0.0625 0  0.8463594539285995 0.7578283617857982 0  0.3128751192101563 0.2851997374369947 0  0.4015281788351144 0.1806421385113692 0  0.1910251795116588 0.4553332197174453 0  0.287797471442006 0.5222621440543902 0  0.3962628745986055 0.8097380085535307 0  0.3505895299554843 0.7304878890838692 0  0.5019151500495276 0.9356042615328103 0  0.9374389419410134 0.4999931039076005 0  0.3125 1 0  0.1875 1 0  1 0.5625 0  0.4375 1 0  1 0.3125 0  1 0.4375 0  0.8125 0 0  1 0.1875 0  0.5625 0 0  0.1875 0 0  0 0.1875 0  0 0.5625 0  0 0.6875 0  0 0.8125 0  1 0.6875 0  1 0.8125 0  0.8021696218581627 0.6612893947866073 0  0.06154922295426143 0.6239401126946708 0  0.9359375 0.9359375 0  0.4666158024849896 0.7691515918155014 0  0.2318201265217025 0.7064974250277525 0  0.1565954253579966 0.6635489312486841 0  0.1598132503680848 0.7787147500325552 0  0.3146529991605639 0.8510876378205265 0  0.1461873209418733 0.05982804528877814 0  0.06109554988524315 0.2446551776247686 0  0.8054950308560754 0.5564226538848541 0  0.470541749491976 0.8853316336952531 0  0.6948472567465137 0.4042308563372457 0  0.8802828472348889 0.4658893256343853 0  0.6788075634946739 0.7974194205806069 0  0.2155048659603867 0.2428201584940968 0  0.8131223143423806 0.2132171049028394 0  0.4330798005432235 0.6671274900735726 0  0.6015279126162613 0.2187368078743274 0  0.8061636571464289 0.8703766630361714 0  0.7008230445061776 0.3478568388444072 0  0.8638466246958771 0.3147095987735538 0  0.204801534004265 0.8789209409594009 0  0.2449006736431132 0.9424182882803838 0  0.7611268409371427 0.2643056884799992 0  0.7552800864046191 0.7678006649959446 0  0.5983639638906616 0.864113435029236 0  0.1956559506814437 0.577281203577426 0  0.3527670268164207 0.1320469097565204 0  0.7530364577483248 0.3262386077083089 0  0.4535919187979363 0.4690107087451527 0  0.8824869791666666 0.8336588541666666 0  0.8814453125 0.9451171875 0  0.5582987942628019 0.622421666543858 0  0.6817532446064828 0.6939001801354731 0  0.3830295138888889 0.9450968952922078 0  0.4140603937012541 0.05211333372716105 0  0.5535864501303013 0.3060591985391672 0  0.6560130086346878 0.2729726562211558 0  0.890203140221684 0.5948314305427268 0  0.7043857725999024 0.593980890020804 0  0.5105843922695152 0.8016828014338627 0  0.05365910753708378 0.7315110031682004 0  0.616904573672261 0.4621186633436136 0  0.5338511646455415 0.387875898899613 0  0.5231769258947843 0.4477682463140762 0  0.650302973237622 0.7370722302085519 0  0.3927483139621257 0.4662414504529014 0  0.8034595960585199 0.4972538342758211 0  0.7738337841682438 0.9496376207663251 0  0.7193737507158268 0.954685447650112 0  0.482525916480686 0.5528257169991676 0  0.2533501157346781 0.2809495420003238 0  0.3118487924482243 0.5702930126570319 0  0.6257598847669529 0.4104163315430518 0  0.1354166666666667 0.1955605158730158 0  0.04166666666666666 0.15625 0  0.3956448985530264 0.6174149462065157 0  0.8102897701818546 0.3938784238208349 0  0.2641154190013625 0.8344469561943118 0  0.642852220770013 0.5068794586563659 0  0.05271458179508221 0.355846947336007 0  0.7021551360070266 0.8921457280225779 0  0.5692125776683765 0.1328512638850284 0  0.5206162811937602 0.04865158770992991 0  0.6001838442201555 0.04540556991297563 0  0.2597716608242787 0.4118346398477178 0  0.4040584599473195 0.3179589136784675 0  0.1480337679295207 0.8941560631483065 0  0.1344356707112281 0.9466251177415842 0  0.7114696411829317 0.4983917389078826 0  0.7585704698442475 0.5751926345944629 0  0.2189131956390871 0.04022068508159698 0  0.2476935455192043 0.1123642267635843 0  0.185995005654517 0.1365524537205238 0  0.6223414373308711 0.643380839165121 0  0.5732602596637543 0.7190051747306219 0  0.268358222364537 0.6586246524467934 0  0.3265879848129173 0.2369791782191225 0  0.1267095595787346 0.7034787238999181 0  0.1115202922226038 0.6421997933884982 0  0.3128688392940203 0.07260997451790079 0  0.550724900485678 0.9253360991633187 0  0.7142608810459105 0.2384904702214873 0  0.7045869185243887 0.1871826897887429 0  0.890625 0.734375 0  0.953125 0.765625 0  0.2111812642821677 0.8286209446459138 0  0.9590293078204457 0.09375 0  0.953431269039847 0.1435719386408004 0  0.04097069217955424 0.90625 0  0.04656873096015299 0.8564280613591996 0  0.1078743037981226 0.8541621766048062 0  0.8921256962018773 0.1458378233951939 0  0.8521576979194619 0.1084496634207678 0  0.8655663982740958 0.05464346096571447 0  0.04005659640905543 0.09375 0  0.1001448316533417 0.0424677624422826
[...]
<PointData  Scalars="f_76639"> 
<DataArray  type="Float64"  Name="f_76639"  format="ascii">1.9098300562505233e-01  1.9098300562505255e-01  1.9098300562505233e-01  1.9098300562505210e-01  1.9098300562505277e-01  1.9098300562505299e-01  1.9098300562505299e-01  1.9098300562505277e-01  2.0178177357929331e-01  1.1909830056250525e+00  1.1909830056250525e+00  1.1909830056250525e+00  -8.0901699437494745e-01  1.1909830056250525e+00  -8.0901699437494745e-01  -8.0901699437494745e-01  -8.0901699437494745e-01  1.9894804189812582e-01  1.9896231787250079e-01  -5.0795809037215645e-01  9.0600862046613340e-01  -7.8481836946811334e-01  1.1677839315343990e+00  9.0303934914490946e-01  -5.1135625944544050e-01  1.1957013515685115e+00  -8.0348758753912852e-01  1.1954157736399182e+00  -7.9788857468348073e-01  1.9500262504754698e-01  1.9498935217846872e-01  9.6684744654453836e-01  2.9346996058431285e-01  5.8596324923341485e-02  -6.1240102354498238e-01  -1.7154488219608349e-01  -6.8252911325313681e-01  -7.4897647508149268e-01  1.1581396149413534e+00  -1.8695352077901981e-01  -9.5951535386958983e-02  9.0011582752898622e-01  8.9808978681160001e-01  8.9808978681160001e-01  -5.1612377556149591e-01  -5.1612377556149591e-01  -4.1623192346676841e-01  -3.9739941073508334e-01  5.1988554308956858e-01  -5.1612377556149491e-01  8.9808978681160001e-01  8.9808978681160001e-01  -5.1612377556149514e-01  8.9808978681160001e-01  -5.1612377556149491e-01  8.9808978681160090e-01  8.9808978681160090e-01  8.9808978681160001e-01  -5.1612377556149514e-01  -5.1612377556149536e-01  -5.1612377556149536e-01  6.8782414103639478e-01  1.0414579747999064e+00  7.2429199253712362e-01  8.6826856676234931e-01  -4.2083087474543640e-01  -6.7451723033505606e-01  1.0080555360055623e+00  7.4858048915849051e-01  1.0090416624085443e+00  1.9373157597826526e-01  -4.8344373724293066e-01  -8.0200212089837974e-01  1.1848539505125544e+00  1.1604294337902241e+00  1.4017467334804182e-01  -7.2975247197496818e-01  -7.8768410653783572e-01  -6.2145257643528318e-01  -5.8914530524698261e-01  1.1018518142808347e+00  -6.7816226081924025e-01  1.1825792767617169e+00  2.5013127920228767e-01  -4.4989607808821386e-02  -4.7629708384504815e-01  1.9457759075100553e-01  8.6295303495396458e-01  1.9099161140781976e-01  -4.7624799641674354e-01  3.6632683108549746e-01  1.1249756192628984e+00  9.9164632300663358e-02  9.1420172500956964e-01  9.1439179900905654e-01  4.3533513072062618e-01  -5.2593246831515250e-01  2.1064587387846170e-01  1.1744744406226411e+00  8.9188550857418680e-01  1.1275736298071486e+00  7.5798997573280080e-01  8.8594703684779563e-01  7.7211906952691212e-01  -4.8625477142384060e-01  8.1076486357677802e-01  1.1148625381363393e+00  -4.0497725278379315e-01  5.3844401856795343e-01  -7.3289652688623386e-01  -5.5789026676390485e-01  5.7366643799014239e-01  2.9752183076583461e-01  -6.7348303448748692e-01  -7.2519009625802566e-01  -7.9551288611730064e-01  -4.2529879609834054e-01  1.1920687213207108e+00  -1.2529542696151669e-01  1.1857413084170754e+00  -7.7913333800117734e-01  1.1904654184975909e+00  -7.3289652688623419e-01  -2.0501975958440610e-01  -7.7915007900333522e-01  -1.9170042674003807e-01  1.8958948977017470e-01  -1.9170042674003729e-01  4.8171170741810772e-02  -7.8563004798193981e-01  6.4498596344596371e-02  1.1240370197143883e+00  -1.9728881075939103e-01  -7.3237994228437198e-01  -7.9684202346834654e-01  1.1850691600306889e+00  1.1197957485834076e+00  8.8138320108371515e-01  8.1274082490692690e-01  -7.6788619854814177e-01  5.6651036399427490e-01  -5.2762821170018914e-01  5.7366643799014239e-01  -1.6757907488392999e-02  -6.3810377167238674e-01  -1.9075769594188027e-01  -1.9170042674003807e-01  -4.0532429768031952e-01  -5.8679342353375752e-01  7.4750909354165618e-01  -2.1288540873424766e-01  1.1786536728391239e+00  1.1148625381363393e+00  -8.0692449905721020e-01  -7.6106311724216480e-01  3.0862903309725842e-01  1.0040499116828068e+00  -3.5403444467275913e-01  -7.3289652688623397e-01  1.1494616315448329e+00  -7.8811285880979165e-01  8.8140113698999856e-01  1.1752607363030054e+00  -1.9170042674003784e-01  5.7366643799014261e-01  5.7366643799014261e-01  -1.9170042674003784e-01  -1.8820880700213777e-01  -1.4506372241523544e-01  -6.7980226758619022e-01  1.0761740605817913e+00  6.6622497550148918e-01  6.4941296457246878e-01  5.7366643799014239e-01  5.7366643799014239e-01  -4.1296816806857045e-01  -3.7869342332054534e-01  -2.9571506293808897e-01  -5.9723835082775434e-01  -7.2957158510043940e-01  1.1600184846243344e+00  6.8700954452677743e-01  5.7644550034606112e-01  5.7702324625764101e-01  1.1148625381363393e+00  1.1148625381363391e+00  -1.9170042674003729e-01  5.7366643799014305e-01  1.1148625381363393e+00  5.7366643799014305e-01  -7.3289652688623408e-01  1.1148625381363391e+00  -1.9170042674003707e-01  1.1148625381363393e+00  1.1148625381363393e+00  -1.9170042674003707e-01  -7.3289652688623397e-01  -7.3289652688623408e-01  -7.3289652688623386e-01  -7.3289652688623419e-01  4.2537001129240709e-01  -7.2535211433661917e-01  -5.2897901788901713e-01  1.1951112292793142e+00  -1.7985363504487789e-01  -7.0762472012477073e-01  -1.8089043591712073e-01  1.0597074807549580e+00  1.1545905157918603e+00  1.1326931961202609e+00  9.6105266987599236e-01  9.8270845693746101e-01  7.8326393105663239e-01  1.0188998220773742e+00  3.4649056353405000e-01  4.5602034799989954e-01  3.6097346320978124e-01  7.8945746151012541e-01  -7.0529316447183854e-01  -7.0066014656290110e-01  5.0080044642431198e-01  1.0969981766398584e+00  6.9689445918340753e-01  1.1168615633289483e+00  3.5696205294329325e-01  5.2856634536668216e-02  4.3003419792375630e-01  -7.9145155735424610e-01  2.9149021215438770e-01  6.7649752922261652e-01  -2.6559179822532830e-01  -7.8327515176619766e-01  -6.9431879127068730e-01  1.1080146196982432e+00  9.0363384431273941e-01  1.0754404678424714e+00  4.0436438081756670e-01  -5.7139643489938474e-01  -2.3237350065446363e-01  2.8943967140624222e-01  1.1540968254644521e+00  1.1227372252425907e+00  -7.8281914282600307e-01  6.7764762990918259e-01  -2.7096993250893731e-01  2.0168444312685729e-02  8.4926846424444868e-01  -5.7320935546543794e-01  1.1478745846546479e+00  -7.9331922709804881e-01  -6.9561371446545273e-01  4.2197981496944564e-01  -1.5568692347103034e-02  -4.7426872758601635e-01  4.2635702235684547e-01  1.0685709295989565e+00  1.1390527830890029e+00  2.8291083548760776e-01  1.1567676481008915e+00  7.7692881955237858e-01  1.0091230914998399e+00  7.3680146624684595e-01  -3.6349045582406053e-01  -7.5834060365579381e-01  -2.2826567730148695e-01  -5.9948019441298483e-01  -6.8160984042311257e-01  -7.8421265871958001e-01  4.5583116396758405e-01  6.8017711386966473e-01  1.1684043439340390e+00  1.0637300950276509e+00  1.1908306741315247e+00  9.6494085599591939e-01  1.0926816822916956e+00  1.1956377158879790e+00  1.1648083665004378e+00  -2.4380316174996342e-01  -1.9036764941796899e-01  -6.7978450550912228e-01  -8.0428299044621476e-01  8.5315062515097062e-01  3.4414337336260964e-01  -9.4402915705898274e-02  -4.3157919352960167e-01  -5.1209913451526301e-01  -7.8810354723574827e-01  4.4341159854274459e-01  5.1751490029599012e-01  7.6491921009970976e-01  -1.3369265558281820e-01  -3.8011148037112891e-01  -4.2450937189668587e-02  4.3009294162503325e-01  -5.1231272750140271e-02  -2.8815986737928562e-01  9.3708009417247651e-01  9.7288241859501723e-01  9.5213517083639940e-02  4.5816761900629172e-01  1.1284183745878038e+00  7.3257491873504765e-01  -7.9156325968557972e-01  -7.0524798675221956e-01  -4.3935102771619439e-01  -5.8160523471503167e-01  -3.2746821778457708e-01  1.2006729502029203e+00  -7.9860490587391808e-01  1.1820569228727869e+00  1.1124156425345340e+00  -7.2341605494252148e-01  -7.2279180151473676e-01  1.1923833437057183e+00  -6.4499914014353588e-01  -4.8339630170867176e-02  4.9123097798839338e-01  -1.6565713819642530e-01  1.1865497320809491e-01  -6.7482310008246871e-01  1.0585394759156959e+00  -4.4195072396975921e-01  -2.8061325183225096e-02  7.7627083687767484e-01  3.3155851096490430e-01  9.5071028057835039e-01  8.8583831586322681e-01  1.1286018580307549e+00  1.0196870131763305e+00  -5.1156488521340242e-02  1.0190601730202005e+00  1.1109729727425264e+00  -7.6511260543928850e-01  -8.0076193559223785e-01  2.0593625870501942e-02  -2.2510701312545300e-01  1.0022499284364066e+00  -1.3824304004457092e-02  9.7780000612465812e-01  1.1099279894223884e+00  5.8376427864957092e-01  -7.3023791091011714e-01  -1.9839232899540396e-01  -1.8240993847038792e-01  6.1746603370326847e-01  -7.8816444261818097e-01  -7.3735891212720561e-01  9.3763127956349460e-02  -4.7382898312428157e-01  -8.0735339242960602e-01  -5.0848372133731223e-01  4.6468220863852289e-01  4.1138743701393854e-01  1.1927051799425739e+00  -5.0428517686852192e-01  8.1210769700903784e-01  1.0679450152930516e+00  6.4793349292212155e-01  -7.3169966369058559e-01  1.9186890421478758e-01  1.9276018831646829e-01  5.9236788910030469e-01  1.9276416844162839e-01  1.9147491555403390e-01  -2.0894932697618362e-01  7.1018132373225129e-01  7.9691524252850421e-01  -7.7688545894241667e-01  -7.3251437429914890e-01  -1.9704569248882573e-03  5.9036150739831850e-01  -5.1006028116198843e-01  -7.8669087031235740e-01  1.1992907173786631e+00  -5.6458852494193290e-01  1.1922882621729449e+00  -6.0444216203544343e-01  -1.8237373118885872e-01  -4.6828473666497689e-01  -5.7317442739984825e-01  -5.9391657392339858e-01  -7.9870202748732233e-01  7.4527486243534380e-01  1.1888299730795922e+00  9.8075600681032360e-01  5.8313310171898958e-01  1.1591373224764823e+00  -1.4368162527470356e-03  3.0825415603577355e-01  -7.8761282596431614e-01  -7.9711339496428257e-01  -7.5715602834052709e-01  1.1845379130859583e+00  4.3180072951253468e-01  -7.9613815680941669e-01  -6.5340469759531172e-01  9.8427869675772717e-01  -3.7969041438339107e-01  1.1922886515259605e+00  6.0871388926307002e-01  1.1681268558150084e+00  1.1950739832897048e+00  9.1188512985328152e-01  1.0915933907313120e+00  -2.9844266599431934e-01  -5.4019154985536899e-01  -1.6561709646142730e-01  -4.1073163910761989e-03  -5.0444566739778141e-01  -7.4578795043231616e-01  4.9716259202492491e-01  1.1956265719242194e+00  5.2330494838380226e-01  -4.3683164066395308e-01  -6.5987735516727786e-01  1.1717682860282830e+00  9.5275953195428265e-01  1.1192546935705748e-02  -1.3130590569309600e-01  1.1733356014732264e+00  -7.5952823729279340e-01  -7.1362130235111920e-01  3.3517936626268624e-01  7.1286567361647027e-02  -6.3805907563546616e-01  -7.9007014189810365e-01  1.2068639514278524e-01  1.0037678342548149e+00  9.3459489679680996e-01  -2.7137734488960613e-01  1.9727704905941870e-01  1.1717682860282830e+00  5.4032300361448471e-01  6.1368456359516477e-01  1.1615596344562511e+00  1.1009678889257419e+00  -4.5268838902710229e-01  7.5032140654011548e-01  -3.9709648961165950e-01  1.0589313578127961e+00  9.8663057124571274e-01  -7.9425778589450347e-01  -8.0413784424318757e-01  -6.9777212546218503e-01  -6.4760801174811822e-01  -4.8392224674762785e-01  -6.2405032885563971e-01  1.1020733792715196e+00  -6.7562638469745451e-01  2.1429667364228197e-01  -3.6458722739454963e-01  9.8472961769269352e-01  2.7497721623586657e-01  3.9197325703529423e-01  -2.7115746502100130e-01  -8.0587406590488364e-01  1.1914148323152871e+00  7.4655323864465473e-01  4.5708952933588559e-01  1.3430192687763134e-01  9.6771095645842553e-01  -5.0987077369929812e-01  -4.5814425633188288e-01  -7.7882469496699314e-01  1.1789707417007793e+00  -1.5503804783658059e-01  -6.4048660667749291e-01  -5.4603470950963218e-01  -7.2647686545786283e-01  -5.9079693576394676e-01  -2.5120888304904837e-01  3.7795855155966213e-01  -2.4017468084222157e-01  -7.1378277482150021e-01  1.1943020027478419e+00  1.1992277941114173e+00  1.0674840733277766e+00  1.1906941097961334e+00  1.0224526179275979e+00  -7.9587750600929574e-01  -7.6248015484758580e-01  9.5504380093119423e-01  -7.5118229025580230e-01  -6.4048660667749258e-01  -8.0224003452591053e-01  7.6377629109833936e-02  -7.8854901171635905e-01  8.9679251183705166e-01  7.4188197923415444e-01  -4.6930803539304888e-01  1.2724752275429649e-01  3.1542607711343262e-01  1.0806260075849151e-01  1.0224526179275981e+00  5.9712221740415138e-03  1.1988661748494456e+00  -3.9174196969257119e-01  -6.6507294312811793e-01  -6.9763693568466068e-01  4.4373764488964701e-01  7.2143353150778433e-01  -1.7267249905642240e-01  1.0224526179275979e+00  1.1717682860282830e+00  1.0619389955397194e+00  8.8218318034069976e-01  6.5877529161042347e-01  -7.4304703177256837e-01  -4.9826704515711429e-01  7.9504998428185780e-01  -8.0141966925796193e-01  -7.5530342402551770e-02  8.9818663071986882e-01  -4.1171041927975194e-01  1.1980994319932521e+00  -7.8980227477817777e-01  1.2663728997513518e-01  9.6121009484942888e-01  1.0789313790757431e+00  3.0431434331483231e-01  5.9670654920120425e-01  2.8976532966460083e-01  1.1884920631004303e+00  1.1068021396053029e+00  6.6241552054921704e-01  9.9952728005682046e-01  9.8874141607426924e-01  6.5407072152973078e-01  3.8705775322019180e-02  -6.2638609265657275e-01  -2.8218226463502638e-01  7.0925719733822412e-01  5.4360398056737341e-02  -7.2974865348654316e-01  5.5877543904704585e-01  1.1717682860282832e+00  1.1488118933514846e+00  9.4856996718486342e-01  1.0234316656978426e+00  -7.2040855825800909e-01  -7.6462263370445294e-01  -6.8824237270039912e-01  -6.3972617082587524e-01  3.8607332764118074e-01  1.1359336430693614e+00  -1.8263954807794611e-01  -4.0306639822482471e-01  5.4082180865221452e-01  -6.1637567570924334e-01  -1.7713022922842567e-01  9.6443272791561230e-02  -6.6578569839685589e-02  1.0965110907369378e+00  -6.8919820359434536e-01  -8.0063460780180851e-01  -4.0818671510572840e-01  -5.9115294732818027e-02  4.8673511992999346e-01  -1.0088529732571330e-01  1.0661710307540300e+00  7.9095173641450300e-01  -1.1798245950331817e-02  3.6667524425774500e-01  1.0842857684307452e+00  1.0823822438904991e+00  1.1823320541765687e+00  1.1864777589191873e+00  1.1225799083418588e+00  2.9150043427663286e-01  1.0663564166098705e+00  1.0224526179275979e+00  4.2911726255347299e-01  1.1879494098617536e+00  1.5960420281866786e-01  -2.3737185301888497e-01  -4.4120739531686204e-01  6.8939108806835470e-01  -4.4718411684940079e-01  1.1805319720273573e+00  -5.9665229454909285e-01  -7.7753753119676849e-01  6.2463689219292029e-01  -7.0334273462894059e-01  1.1263438694554178e+00  8.0158885046385198e-01  1.0764009430545387e+00  5.8691205822411141e-01  -2.4880150886306809e-01  -7.8980227477817810e-01  1.0565716318953027e+00  4.5963419240155379e-01  1.4157025187402564e-01  -7.4248541829486925e-01  9.9225728893213994e-01  -6.0851848412230958e-01  -2.5329058042474167e-01  -5.1725684857885756e-01  4.1571733566105334e-01  8.3505722019202533e-01  -5.5594254120245246e-01  1.1398922160022276e+00  1.1688438010669442e+00  9.0418277308382999e-01  7.7184602569715666e-01  7.4655323864465473e-01  6.9364174781154431e-01  -3.4988424695646059e-02  -7.7378350958189190e-01  2.4065917949835791e-01  1.0978284850465916e+00  6.6633527528090086e-01  8.1363224944518808e-01  7.4655323864465473e-01  8.0461052752802187e-01  -5.8685533063365736e-01  -8.0214767107368479e-01  -6.7927098900360183e-01  -7.9234102000284723e-01  -1.5276302675453518e-01  -4.1022407199304195e-01  7.5955575527267249e-01  6.1055930735318253e-01  3.8607332764118074e-01  3.8607332764118074e-01  -5.0066738824516821e-01  -4.1073163910758659e-03  -6.9384305309062955e-01  9.4752816962250119e-01  1.0224526179275979e+00  -6.4048660667749291e-01  -8.7388414023614233e-02  -2.9364355296876249e-01  -1.1075564291228687e-01  -7.9651486042728148e-01  -6.3820409611561435e-01  9.5561339260412814e-01  4.8791893961595384e-01  -7.8980227477817810e-01  1.0435067647772753e+00  1.1139793153306259e+00  3.6315913789197823e-01  1.1488894162983749e+00  -3.1511505772914256e-01  -7.7737993106689662e-01  -7.8831351881893275e-01  1.1970097222133356e+00  6.7740112596993851e-01  9.8563355112271578e-01  1.1551220052710338e+00  8.8825631753281475e-01  4.6346318349821936e-01  -4.9314384109478804e-01  -8.0458108355427171e-01  1.2004753238106252e+00  2.2153517678684123e-01  3.9721644054655186e-01  3.7991753898836111e-01  -2.9689987149744368e-01  6.8309499930711493e-01  -2.1018151800829592e-02  -2.6038872921845019e-03  -3.6311523554082997e-01  3.8607332764118119e-01  -3.6458722739454985e-01  -3.6458722739454918e-01  -6.4048660667749302e-01  -4.1073163910761989e-03  3.8607332764118074e-01  -4.1073163910747557e-03  -6.4048660667749269e-01  1.1717682860282832e+00  -6.4048660667749258e-01  -7.8980227477817777e-01  -6.4048660667749269e-01  3.8607332764118052e-01  -4.1073163910747557e-03  -3.6458722739454918e-01  7.4655323864465473e-01  3.8607332764118119e-01  -4.1073163910758659e-03  1.1717682860282830e+00  1.0224526179275979e+00  -7.8980227477817788e-01  -7.8980227477817788e-01  7.4655323864465428e-01  7.4655323864465473e-01  -3.6458722739454963e-01  7.4655323864465428e-01  1.1717682860282830e+00  -3.6458722739454941e-01  7.4655323864465473e-01  1.0224526179275979e+00  -7.8980227477817799e-01  3.8607332764118052e-01  -3.6458722739454985e-01  -4.1073163910755328e-03  -4.1073163910755328e-03  -3.6458722739454941e-01  1.1717682860282830e+00  1.0224526179275981e+00  -7.8980227477817799e-01  -6.4048660667749302e-01  5.3291516054186028e-01  8.7780398892543476e-01  5.3295005691149011e-01  1.1642979471872426e+00  -6.4969876793973269e-01  3.9923418491222179e-01  2.2158359438975656e-01  2.7680716146520568e-01  6.7572891375112187e-01  -4.2217181610448817e-01  1.1404442561676300e+00  1.1880877020681617e+00  -8.0732249371889345e-02  -6.3877988851700340e-01  -7.9825566284562133e-01  -6.2697066739993468e-01  -3.6922469440972189e-01  1.0380133139246721e+00  1.1687783827981855e+00  1.0036131522476890e+00  7.1382935679623738e-01  9.3883661804963658e-01  -3.6628915518036431e-02  1.3709882826757770e-02  -7.6924186528649419e-01  -4.3529318073560785e-01  7.5782692326881590e-02  1.0093359236941604e+00  1.1979760202112981e+00  -7.8784084157448531e-01  1.0678285931843876e+00  -7.7257991190104869e-01  -7.0851023214467768e-01  9.2290960394328747e-01  -2.5548620048865922e-01  1.0693149503430632e+00  -2.6650335354152610e-01  5.7882315998832690e-01  1.1626435817595961e+00  1.0972914442388686e+00  -2.5662359393111461e-01  8.1855293076300695e-01  -4.2255530923588874e-01  6.0985020377458676e-01  1.1918524627049352e+00  -1.3743178057381103e-01  -3.3073046459856964e-01  -7.7037037444524184e-02  1.0942332603086808e+00  1.0169270970099429e+00  7.8198506264465228e-01  9.6473553260111478e-01  -3.5079080721687406e-01  1.1359653523889113e+00  -3.1439418069062963e-01  -4.0034448106178910e-01  -2.9638621101279178e-01  7.3814321861781357e-02  1.9556310989026771e-01  5.0397183952168256e-01  1.7402217326616404e-01  8.5122715380478664e-02  -1.2352403145323160e-01  1.1980463730432964e+00  -7.8773241176051245e-01  -6.7107881565032657e-01  -5.8894577019551952e-01  1.1813057068798747e+00  -6.1277599092537682e-01  1.0949037342344257e+00  9.9822873987359451e-01  7.9896508991293225e-01  8.2770189248381765e-01  4.5223328143302582e-01  5.1502739219926619e-01  -1.9042775473949244e-01  1.1616661182772385e+00  -4.3819936428559125e-01  6.3135370701318083e-02  5.6510494601497474e-01  1.1430511385165436e+00  7.9285797813728631e-01  -5.8385534929573391e-01  -2.5363994577253091e-01  1.1156476207431332e+00  2.8133127954045262e-01  8.9319718769282053e-01  -5.6934923809867199e-01  -5.4251296833616924e-01  1.1428024546248809e+00  -3.3391624630565614e-01  -2.7457799577002001e-01  2.0324539025979765e-01  -5.6155087011625826e-01  -6.3238649187736029e-01  -6.4870937884049285e-01  -6.3836731919314349e-01  -8.0603013018505121e-01  9.3803538146806820e-01  7.0001747311448759e-01  -8.0178636248314927e-01  1.1496226840031798e+00  5.3513029090046527e-01  6.3491658930680872e-02  -7.2400099407654739e-01  9.5425633022171844e-02  8.0293259843734655e-01  -8.0138283287981460e-01  -7.5126404264607105e-01  1.0841434652224771e+00  1.0028286859814528e+00  1.1604387909034122e+00  -4.798619257758