<?xml version="1.0"?>
<VTKFile type="UnstructuredGrid"  version="0.1"  >
<UnstructuredGrid>
<Piece  NumberOfPoints="15681" NumberOfCells="30848">
<Points>
<DataArray  type="Float64"  NumberOfComponents="3"  format="ascii">0 1 0  0 0 0  1 0 0  1 1 0  0.5 0 0  1 0.5 0  0.5 1 0  0 0.5 0  0.5 0.5 0  0 0.25 0  0.25 0 0  0.25 1 0  0 0.75 0  1 0.25 0  0.75 0 0  1 0.75 0  0.75 1 0  0.7083333333333333 0.2916666666666667 0  0.2916666666666666 0.7083333333333334 0  0.375 0.25 0  0.75 0.625 0  0.2569444444444444 0.4652777777777778 0  0.5366379310344828 0.7535919540229885 0  0.1875 0.1875 0  0.8125 0.8125 0  0.869047619047619 0.375 0  0.1450441919191919 0.6052714646464646 0  0.375 0.8690476190476191 0  0.5526960784313725 0.1825980392156862 0  0.8385416666666666 0.1614583333333334 0  0.1614583333333333 0.8385416666666667 0  0.6736111111111112 0.4652777777777778 0  0.1367521367521368 0.3477564102564102 0  0.6570970491253563 0.8648656830417855 0  0.5102479397556124 0.3386260301221938 0  0.3654513888888889 0.5737847222222222 0  0.6929750044954185 0.1362784921584263 0  0.388576102743835 0.411911725237599 0  0.6091269841269842 0.5942460317460317 0  0.875 0.6875 0  0.427278890279516 0.119889445139758 0  0.8544456845238095 0.5213913690476191 0  0.125 0 0  0 0.125 0  1 0.875 0  0.875 1 0  0.1280008648150532 0.4769292340226777 0  0.2695382451711197 0.3321750950221553 0  0.7031567235715964 0.7447810921428012 0  0.625 0 0  0.375 0 0  0.125 1 0  0.875 0 0  0 0.375 0  0 0.625 0  1 0.375 0  0.375 1 0  1 0.125 0  0 0.875 0  0.625 1 0  1 0.625 0  0.2979288363930608 0.1201429454643536 0  0.410919540229885 0.7484605911330049 0  0.5325041980395562 0.878905151526474 0  0.4831670727569156 0.6331060043826487 0  0.1735997378973042 0.7204747378973043 0  0.2534919507575758 0.5772372159090909 0  0.2633928571428572 0.8876488095238095 0  0.8199404761904761 0.2730654761904762 0  0.75830270586982 0.3919383189517417 0  0.5750282248382511 0.4237522353023667 0  0.6008360210023379 0.2794828358598495 0  0.08163442644334186 0.6821295860397322 0  0.08333333333333333 0.1875 0  0.2028380815996574 0.08844602719988583 0  0.2766521142611967 0.2325436572164097 0  0.90625 0.78125 0  0.890625 0.890625 0  0.7545696325008384 0.8973565441669461 0  0.5625 0.08086590340834317 0  0.09077380952380953 0.09077380952380952 0  0.4610923478694773 0.209034015149656 0  0.7542527598351648 0.5248380520595106 0  0.6459235536037465 0.3619913988405765 0  0.7560381768882634 0.20506142233852 0  0.07073252688172042 0.8125 0  0.0924753097241701 0.9078102849914793 0  0.9292674731182795 0.1875 0  0.9075246902758297 0.09218971500852073 0  0.8125 0.07073252688172045 0  0.2400955776842301 0.7869705776842302 0  0.9121050213379069 0.2781978201831695 0  0.7916878157143976 0.7239689078571988 0  0.9345238095238094 0.4375 0  0.4375 0.9345238095238095 0  0.3725616989755203 0.6651895248862173 0  0.06536271996350887 0.5625 0  0.9348362560379583 0.5625 0  0.456646798987055 0.8277247094351965 0  0.1875 0.9355758238725954 0  0.6169761231634859 0.6939779188977889 0  0.6226854751147515 0.7827911461419014 0  0.3305695598137626 0.7901697871282585 0  0.5865305325818898 0.5101085479043448 0  0.6622701297028378 0.2177663989757395 0  0.1354166666666667 0.2591702279202279 0  0 0.3125 0  0.2094429575680048 0.3936361846162499 0  0.836666296419157 0.607917407161686 0  0.6875 1 0  0.214261555450504 0.6492551722020035 0  0 0.4375 0  0.07731537126068377 0.40625 0  0.3427725432967068 0.4879566233699599 0  0.3550792513951871 0.3331953632609953 0  0.4462473953896857 0.2887834789342508 0  0.4747801464819794 0.417386052030127 0  0.8229836475148948 0.4443292349237342 0  0.7322605135514757 0.8199240278289671 0  0.6756431877205955 0.5468989748126787 0  0.1968419507215863 0.5194573482612496 0  0.3285590277777778 0.9345238095238095 0  0.8125 1 0  0.4198917601920009 0.5134893045331258 0  0.5232405503206691 0.2595791787880157 0  1 0.9375 0  0.1987510870015086 0.3025185951894431 0  0.5625 1 0  0.6005390654136388 0.9228110509230952 0  0.6411254848194414 0.07704872765442942 0  0.3357233162523242 0.1855113224530532 0  0.6730653396610877 0.6393887462324165 0  0.310966987234063 0.6240019765311626 0  0.7368737836204349 0.07457755202327881 0  0.6192316414418171 0.1485238406378594 0  0.5432429670607106 0.678552703844006 0  0.4754371679695679 0.7103946803120881 0  0.07501324890749672 0.3043839897335739 0  0.5358146975860403 0.5688321463205916 0  0.3115271739500156 0.3982137365971444 0  0.3625191397122174 0.0767854603650549 0  0.5024029442563831 0.1264128223758444 0  0.4375 0 0  0.4699946908887376 0.06379961173775725 0  0.9375 0.71875 0  0.9272105898044465 0.635671179608893 0  0.9375 1 0  0.6690971819568612 0.9331530898202766 0  0.1073454944778885 0.7499206387638554 0  0.8699082999280406 0.2232403652524313 0  0.5773118091863964 0.3548027349159383 0  0.1354166666666667 0.1428571428571428 0  0.3125 0 0  0.8241684193077341 0.9257452995055244 0  0.4352314948354036 0.3586940847489378 0  0.4351301473778832 0.5819726043539077 0  0.8073232928518163 0.3419398170341962 0  0.7775949246947366 0.1298519409204575 0  0.6875 0 0  0.7413513991851041 0.457933324954483 0  0.939453125 0.841796875 0  0.5630355154606987 0.8171875156478349 0  0.9345238095238095 0.3461466592368577 0  0.9375 0 0  1 0.0625 0  0.0625 1 0  0 0.9375 0  0.06552178593177167 0.4969053669623468 0  0.1424866619031703 0.4130277709291224 0  0.1275287182444726 0.5422946908002588 0  0.2637686595586339 0.06413888464529549 0  0.2524263535491086 0.1697437503243817 0  0.7367218397988525 0.6888573970660841 0  0.0625 0 0  0 0.0625 0  0.8463594539285995 0.7578283617857982 0  0.3128751192101563 0.2851997374369947 0  0.4015281788351144 0.1806421385113692 0  0.1910251795116588 0.4553332197174453 0  0.287797471442006 0.5222621440543902 0  0.3962628745986055 0.8097380085535307 0  0.3505895299554843 0.7304878890838692 0  0.5019151500495276 0.9356042615328103 0  0.9374389419410134 0.4999931039076005 0  0.3125 1 0  0.1875 1 0  1 0.5625 0  0.4375 1 0  1 0.3125 0  1 0.4375 0  0.8125 0 0  1 0.1875 0  0.5625 0 0  0.1875 0 0  0 0.1875 0  0 0.5625 0  0 0.6875 0  0 0.8125 0  1 0.6875 0  1 0.8125 0  0.8021696218581627 0.6612893947866073 0  0.06154922295426143 0.6239401126946708 0  0.9359375 0.9359375 0  0.4666158024849896 0.7691515918155014 0  0.2318201265217025 0.7064974250277525 0  0.1565954253579966 0.6635489312486841 0  0.1598132503680848 0.7787147500325552 0  0.3146529991605639 0.8510876378205265 0  0.1461873209418733 0.05982804528877814 0  0.06109554988524315 0.2446551776247686 0  0.8054950308560754 0.5564226538848541 0  0.470541749491976 0.8853316336952531 0  0.6948472567465137 0.4042308563372457 0  0.8802828472348889 0.4658893256343853 0  0.6788075634946739 0.7974194205806069 0  0.2155048659603867 0.2428201584940968 0  0.8131223143423806 0.2132171049028394 0  0.4330798005432235 0.6671274900735726 0  0.6015279126162613 0.2187368078743274 0  0.8061636571464289 0.8703766630361714 0  0.7008230445061776 0.3478568388444072 0  0.8638466246958771 0.3147095987735538 0  0.204801534004265 0.8789209409594009 0  0.2449006736431132 0.9424182882803838 0  0.7611268409371427 0.2643056884799992 0  0.7552800864046191 0.7678006649959446 0  0.5983639638906616 0.864113435029236 0  0.1956559506814437 0.577281203577426 0  0.3527670268164207 0.1320469097565204 0  0.7530364577483248 0.3262386077083089 0  0.4535919187979363 0.4690107087451527 0  0.8824869791666666 0.8336588541666666 0  0.8814453125 0.9451171875 0  0.5582987942628019 0.622421666543858 0  0.6817532446064828 0.6939001801354731 0  0.3830295138888889 0.9450968952922078 0  0.4140603937012541 0.05211333372716105 0  0.5535864501303013 0.3060591985391672 0  0.6560130086346878 0.2729726562211558 0  0.890203140221684 0.5948314305427268 0  0.7043857725999024 0.593980890020804 0  0.5105843922695152 0.8016828014338627 0  0.05365910753708378 0.7315110031682004 0  0.616904573672261 0.4621186633436136 0  0.5338511646455415 0.387875898899613 0  0.5231769258947843 0.4477682463140762 0  0.650302973237622 0.7370722302085519 0  0.3927483139621257 0.4662414504529014 0  0.8034595960585199 0.4972538342758211 0  0.7738337841682438 0.9496376207663251 0  0.7193737507158268 0.954685447650112 0  0.482525916480686 0.5528257169991676 0  0.2533501157346781 0.2809495420003238 0  0.3118487924482243 0.5702930126570319 0  0.6257598847669529 0.4104163315430518 0  0.1354166666666667 0.1955605158730158 0  0.04166666666666666 0.15625 0  0.3956448985530264 0.6174149462065157 0  0.8102897701818546 0.3938784238208349 0  0.2641154190013625 0.8344469561943118 0  0.642852220770013 0.5068794586563659 0  0.05271458179508221 0.355846947336007 0  0.7021551360070266 0.8921457280225779 0  0.5692125776683765 0.1328512638850284 0  0.5206162811937602 0.04865158770992991 0  0.6001838442201555 0.04540556991297563 0  0.2597716608242787 0.4118346398477178 0  0.4040584599473195 0.3179589136784675 0  0.1480337679295207 0.8941560631483065 0  0.1344356707112281 0.9466251177415842 0  0.7114696411829317 0.4983917389078826 0  0.7585704698442475 0.5751926345944629 0  0.2189131956390871 0.04022068508159698 0  0.2476935455192043 0.1123642267635843 0  0.185995005654517 0.1365524537205238 0  0.6223414373308711 0.643380839165121 0  0.5732602596637543 0.7190051747306219 0  0.268358222364537 0.6586246524467934 0  0.3265879848129173 0.2369791782191225 0  0.1267095595787346 0.7034787238999181 0  0.1115202922226038 0.6421997933884982 0  0.3128688392940203 0.07260997451790079 0  0.550724900485678 0.9253360991633187 0  0.7142608810459105 0.2384904702214873 0  0.7045869185243887 0.1871826897887429 0  0.890625 0.734375 0  0.953125 0.765625 0  0.2111812642821677 0.8286209446459138 0  0.9590293078204457 0.09375 0  0.953431269039847 0.1435719386408004 0  0.04097069217955424 0.90625 0  0.04656873096015299 0.8564280613591996 0  0.1078743037981226 0.8541621766048062 0  0.8921256962018773 0.1458378233951939 0  0.8521576979194619 0.1084496634207678 0  0.8655663982740958 0.05464346096571447 0  0.04005659640905543 0.09375 0  0.1001448316533417 0.0424677624422826
[...]
<PointData  Scalars="f_76639"> 
<DataArray  type="Float64"  Name="f_76639"  format="ascii">1.8090169943749461e+00  1.8090169943749466e+00  1.8090169943749461e+00  1.8090169943749461e+00  1.8090169943749466e+00  1.8090169943749470e+00  1.8090169943749470e+00  1.8090169943749466e+00  1.7958377899926479e+00  2.8090169943749466e+00  2.8090169943749466e+00  2.8090169943749466e+00  8.0901699437494645e-01  2.8090169943749466e+00  8.0901699437494645e-01  8.0901699437494645e-01  8.0901699437494645e-01  1.7995235148315278e+00  1.7995376858776482e+00  1.0922700887334886e+00  2.5062352669616152e+00  8.1425680580413673e-01  2.7673229274730740e+00  2.5105903939545797e+00  1.0961934312015735e+00  2.8023947664395390e+00  8.0209449201287086e-01  2.8021094048503148e+00  8.0501068056899405e-01  1.8044422191387166e+00  1.8044282901861972e+00  2.5634492749556523e+00  1.9000511909303941e+00  1.6653350078491527e+00  9.8378316327802096e-01  1.4243771565347843e+00  9.2461016984109357e-01  8.4666862876044358e-01  2.7538300280079251e+00  1.4208228958970037e+00  1.5111874584000256e+00  2.5052655542553981e+00  2.5161237755614940e+00  2.5161237755614940e+00  1.1019102131883980e+00  1.1019102131883980e+00  1.1901581578773670e+00  1.2028623765653024e+00  2.1215046185592095e+00  1.1019102131883991e+00  2.5161237755614940e+00  2.5161237755614940e+00  1.1019102131883987e+00  2.5161237755614940e+00  1.1019102131883991e+00  2.5161237755614949e+00  2.5161237755614949e+00  2.5161237755614940e+00  1.1019102131883987e+00  1.1019102131883987e+00  1.1019102131883987e+00  2.2961133595337100e+00  2.6411600338420551e+00  2.3312067171984907e+00  2.4637782487069484e+00  1.1847155263667168e+00  9.2498677303467414e-01  2.6173549594917946e+00  2.3539508435203129e+00  2.6093879329338905e+00  1.7886915532298957e+00  1.1152945551587115e+00  8.0878587081286590e-01  2.7971949338343536e+00  2.7722042091218366e+00  1.7431822544981457e+00  8.8143006636339627e-01  8.2542578269375788e-01  9.8874189067252927e-01  1.0210486148378566e+00  2.7161731328939682e+00  9.2320572042778770e-01  2.7821063867609914e+00  1.8473165912885692e+00  1.5600342998265482e+00  1.1367830382032977e+00  1.8088011180441192e+00  2.4760325089104596e+00  1.8052138769229478e+00  1.1368324168682140e+00  1.9711529818602846e+00  2.7356992020098341e+00  1.7031728009083840e+00  2.5257348678913267e+00  2.5259241098220371e+00  2.0327745635270955e+00  1.0856102323073411e+00  1.8222070885918444e+00  2.7779515961528429e+00  2.5053489371616084e+00  2.7256476936124021e+00  2.3596531047514424e+00  2.4887014391450486e+00  2.3667823101429866e+00  1.1159996755383406e+00  2.4187680454296117e+00  2.7328965268862331e+00  1.1968730507241707e+00  2.1428863981123580e+00  8.8513746186366005e-01  1.0443068362412993e+00  2.1917004267400362e+00  1.9081199424668307e+00  9.2259428623752471e-01  8.7263875504971811e-01  8.0242091982109454e-01  1.1693535593341668e+00  2.7953108708538390e+00  1.4801973035314506e+00  2.7824715556686486e+00  8.2284040432302930e-01  2.8024606246082229e+00  8.8513746186365971e-01  1.3895640740822248e+00  8.1977322448225176e-01  1.4263335620098558e+00  1.7934195170038605e+00  1.4263335620098565e+00  1.6588061972702204e+00  8.2522531240732611e-01  1.6683779426204364e+00  2.7219114952309735e+00  1.4007518595636261e+00  8.7946601203920716e-01  8.0863611891803278e-01  2.7818619111122023e+00  2.7175513042715274e+00  2.4927979337024024e+00  2.4072748985226413e+00  8.2979279229736558e-01  2.1773659859773922e+00  1.0788602135749645e+00  2.1917004267400362e+00  1.5948746687510724e+00  9.7447527760755182e-01  1.4204177463415504e+00  1.4263335620098558e+00  1.2065432881033960e+00  1.0230319266911534e+00  2.3565528049206868e+00  1.3833155690743451e+00  2.7897046936322498e+00  2.7328965268862331e+00  8.0613580195440326e-01  8.3491823911253538e-01  1.9035502235811566e+00  2.6074561844465522e+00  1.2550407130994616e+00  8.8513746186365994e-01  2.7484957889746395e+00  8.2600857335827693e-01  2.4843409231457350e+00  2.7871496889246159e+00  1.4263335620098561e+00  2.1917004267400366e+00  2.1917004267400366e+00  1.4263335620098561e+00  1.4232529614115765e+00  1.4605569439849213e+00  9.2666187558847413e-01  2.6887820996942859e+00  2.2725814935648461e+00  2.2503824023640884e+00  2.1917004267400362e+00  2.1917004267400362e+00  1.1944253224173815e+00  1.2214988321791067e+00  1.3076154113203819e+00  1.0051391645189653e+00  8.6824279603720267e-01  2.7628545237835422e+00  2.2868924023301802e+00  2.1880088372317652e+00  2.1887519399354241e+00  2.7328965268862331e+00  2.7328965268862331e+00  1.4263335620098565e+00  2.1917004267400371e+00  2.7328965268862331e+00  2.1917004267400371e+00  8.8513746186365982e-01  2.7328965268862331e+00  1.4263335620098569e+00  2.7328965268862331e+00  2.7328965268862331e+00  1.4263335620098569e+00  8.8513746186365994e-01  8.8513746186365982e-01  8.8513746186366005e-01  8.8513746186365971e-01  2.0285647888686813e+00  8.8672573686841971e-01  1.0869063698541948e+00  2.7953579142101148e+00  1.4227412033974094e+00  8.9786344434407184e-01  1.4267341011399137e+00  2.6659668584109864e+00  2.7689408968770288e+00  2.7457102029409937e+00  2.5632886433019815e+00  2.5901015097446756e+00  2.3810587180614609e+00  2.6259200127799467e+00  1.9497644028768033e+00  2.0606695607903784e+00  1.9676736329903437e+00  2.3861062923959975e+00  8.9604173826127420e-01  9.0911476310284101e-01  2.0997385826433068e+00  2.7040344964972518e+00  2.3068271915951470e+00  2.7301338945177478e+00  1.9600846942851413e+00  1.6568253657976084e+00  2.0361790214017952e+00  8.1085810216836229e-01  1.8983251569389352e+00  2.2777322695605720e+00  1.3287127894535022e+00  8.2779296227181642e-01  9.2073436017807730e-01  2.7035327375438660e+00  2.5030560841382861e+00  2.6880807517718881e+00  2.0171674673310824e+00  1.0259460174260397e+00  1.3675155247265229e+00  1.8974426773702346e+00  2.7521809182417729e+00  2.7246145037448928e+00  8.3055478533787896e-01  2.2729119833510119e+00  1.3241839823257724e+00  1.6144847593445084e+00  2.4494124570005220e+00  1.0218586489634713e+00  2.7498448203260279e+00  8.2065650586306715e-01  9.1835381381154968e-01  2.0162816988428403e+00  1.5865530625584932e+00  1.1230286115792931e+00  2.0222889797297401e+00  2.6780261620875234e+00  2.7543045097947871e+00  1.8789020793138151e+00  2.7596582275132233e+00  2.3832184317023946e+00  2.6048354833056764e+00  2.3497447424172568e+00  1.2456126023217988e+00  8.4784648880420455e-01  1.3847681039958897e+00  1.0139813757850078e+00  9.1774239582851136e-01  8.1319339968383575e-01  2.0679131046046955e+00  2.2950488402732057e+00  2.7661600047211921e+00  2.6637403502851265e+00  2.8056149326521789e+00  2.5745021582420371e+00  2.7023471804445562e+00  2.7924604607504824e+00  2.7631827758259879e+00  1.3563045994225760e+00  1.4112646948945275e+00  9.2810738304029272e-01  8.0392810327508846e-01  2.4646840226551276e+00  1.9548411572117501e+00  1.5081308746001274e+00  1.1729565108323508e+00  1.0973534768287538e+00  8.2606257573362218e-01  2.0508125483773285e+00  2.1335881343254584e+00  2.3800313879210098e+00  1.4823800436888455e+00  1.2350014821971225e+00  1.5696046657795202e+00  2.0421473068037832e+00  1.5607428409181496e+00  1.3266461796775133e+00  2.5531942142869553e+00  2.5887947837546808e+00  1.7114657570945451e+00  2.0742643753815813e+00  2.7361537852909579e+00  2.3493806892442239e+00  8.1886939354869448e-01  8.9781985974270995e-01  1.1647026204767206e+00  1.0191933230487946e+00  1.2827804623374055e+00  2.7973163070262994e+00  7.9868612073121803e-01  2.7952019196309741e+00  2.7261417475120333e+00  8.9113752242041688e-01  8.9203369106138619e-01  2.8061142379632478e+00  9.7053703349755782e-01  1.5568466816226922e+00  2.0937318978724311e+00  1.4318232865519422e+00  1.7257367315388490e+00  9.2979934071272297e-01  2.6538622522218023e+00  1.1650058773674641e+00  1.5755691636512656e+00  2.3746734804164857e+00  1.9304578644350605e+00  2.5586808523042408e+00  2.5004930800061835e+00  2.7365245700520777e+00  2.6243994867464804e+00  1.5585594389038424e+00  2.6324402364394843e+00  2.7259361505912874e+00  8.4352598527110734e-01  7.9887603007999297e-01  1.6258833259206167e+00  1.3805267467473183e+00  2.6029896439810809e+00  1.5937272749238254e+00  2.5789774855193848e+00  2.7143287735280595e+00  2.1983157253867791e+00  8.7798175888630270e-01  1.4162057669588648e+00  1.4322669726085915e+00  2.2260760181361010e+00  8.0819667574476894e-01  8.7735693973081963e-01  1.6923937837982606e+00  1.1340311288102725e+00  8.0765917302035772e-01  1.1063341515933116e+00  2.0688577717990833e+00  2.0058504979825895e+00  2.8070280183254201e+00  1.0919099219209571e+00  2.4192388013568435e+00  2.6784166765882254e+00  2.2560488571292541e+00  8.8323775588068643e-01  1.8065997097465678e+00  1.8073689765448775e+00  2.2069603785984708e+00  1.8075004957640524e+00  1.8085049250392040e+00  1.4083737402708423e+00  2.3151017601456281e+00  2.3988069364228291e+00  8.2360269428217669e-01  8.8336791079533017e-01  1.6037197433875172e+00  2.1845915339681330e+00  1.1046031487173424e+00  8.2426951713256635e-01  2.7958761080803773e+00  1.0302387189246864e+00  2.8042701592750623e+00  9.9097333306537116e-01  1.4323054984287691e+00  1.1321678945084230e+00  1.0258230012998750e+00  1.0051616416030449e+00  7.9773876104960806e-01  2.3485361155141056e+00  2.7871007856481231e+00  2.5787405790100117e+00  2.1787322465820105e+00  2.7688942146210298e+00  1.5953392565533437e+00  1.9127009101187635e+00  8.1305229484821306e-01  8.0184833489741736e-01  8.4032199969555188e-01  2.7930938914184198e+00  2.0410980337678812e+00  8.0065403535761914e-01  9.5588893054454516e-01  2.5791517840343210e+00  1.2310694252833534e+00  2.8070857357284447e+00  2.2229837454330812e+00  2.7692769471673846e+00  2.8000952016348482e+00  2.5069006328583936e+00  2.6959060599154245e+00  1.3147219060543160e+00  1.0600901015175481e+00  1.4363914579644284e+00  1.6139266723588177e+00  1.0994301436029805e+00  8.5747824196688893e-01  2.1020639286169227e+00  2.8006506238448488e+00  2.1287828818314747e+00  1.1584474656849644e+00  9.4068843677363745e-01  2.7898022747781770e+00  2.5631353243317321e+00  1.6053807021989368e+00  1.4637674482569318e+00  2.7745844284552827e+00  8.3702247169268840e-01  8.8513032553343818e-01  1.9376842789721136e+00  1.6796663754601140e+00  9.6563194583127354e-01  8.1044721120975260e-01  1.7240349205266916e+00  2.6034665608107699e+00  2.5339239070662600e+00  1.3345597671520459e+00  1.8007311070957552e+00  2.7898022747781770e+00  2.1505557216063940e+00  2.2084843308224609e+00  2.7726005550242681e+00  2.7158554550398555e+00  1.1566586436050108e+00  2.3544607054043603e+00  1.2167768813854203e+00  2.6735748667945209e+00  2.5975688481011261e+00  8.1391528597115492e-01  8.0979615811148864e-01  8.9756661786093195e-01  9.6144589240965650e-01  1.1326493999415888e+00  9.7493055372303039e-01  2.7001170044570575e+00  9.2317962874395665e-01  1.8224191277007853e+00  1.2534467613553444e+00  2.5812277636654763e+00  1.8877862187257706e+00  2.0001953446811402e+00  1.3397130803242194e+00  8.0769820708307161e-01  2.8001494983216801e+00  2.3645872273945487e+00  2.0629868156625735e+00  1.7287565341803888e+00  2.5819929696680641e+00  1.0907906981677813e+00  1.1500602092554837e+00  8.2495082689185095e-01  2.7885471606899497e+00  1.4489983168103027e+00  9.7754738207240099e-01  1.0694050911304855e+00  8.7675674291578187e-01  1.0210668550070809e+00  1.3507865099287613e+00  1.9840154406192967e+00  1.3679473650018465e+00  8.9091996772511406e-01  2.7921786466269731e+00  2.7984087885946995e+00  2.6633229872748516e+00  2.8047732623827817e+00  2.6404866066774919e+00  8.1727784557643524e-01  8.4932960622324671e-01  2.5660837551481430e+00  8.4950352048118638e-01  9.7754738207240133e-01  8.0185495914381655e-01  1.6863932341548424e+00  8.0917209973005155e-01  2.5045235547878999e+00  2.3499988922855222e+00  1.1294405308347539e+00  1.7250873733120353e+00  1.9202244117207488e+00  1.7042777883392175e+00  2.6404866066774919e+00  1.6173029542471471e+00  2.7989038238217936e+00  1.2163296851463590e+00  9.4717943673803440e-01  9.1176990593913410e-01  2.0486695976750013e+00  2.3174871886605550e+00  1.4215788779534715e+00  2.6404866066774919e+00  2.7898022747781770e+00  2.6771956149189959e+00  2.4965077376468856e+00  2.2723998032443515e+00  8.6762116632028430e-01  1.1093339496684762e+00  2.3941641981592663e+00  8.1350913589297924e-01  1.5300777740689178e+00  2.5025112973356207e+00  1.1912444864502392e+00  2.7995036981534414e+00  8.2823171397171613e-01  1.7333309160555697e+00  2.5769241017766191e+00  2.6942150085548420e+00  1.9186514343091301e+00  2.2057069261463296e+00  1.8839234791840294e+00  2.7993750718060739e+00  2.7153092146620881e+00  2.2637786783361782e+00  2.5972846217135865e+00  2.5876454620688842e+00  2.2554807138965325e+00  1.6381000833786166e+00  9.8898670096409225e-01  1.3250131573753168e+00  2.3163442375992611e+00  1.6688633457603874e+00  8.7008450903179180e-01  2.1651375890671098e+00  2.7898022747781770e+00  2.7533532985885802e+00  2.5534821605856521e+00  2.6253204024211643e+00  8.7752711111494375e-01  8.5060298608984752e-01  9.2350078367238508e-01  9.7487326020495080e-01  2.0041073163910745e+00  2.7416378158695038e+00  1.4244130347751254e+00  1.2014806485300265e+00  2.1377179822488768e+00  9.9828522736275249e-01  1.4320409447657625e+00  1.6918246381555160e+00  1.5486944548899844e+00  2.6931223286477106e+00  9.2686420632224809e-01  8.1223916613610114e-01  1.1877353308726937e+00  1.5362917089967509e+00  2.1006063858721506e+00  1.5129853196329652e+00  2.6673655323083554e+00  2.3933846082884043e+00  1.5927319777388844e+00  1.9695046784410501e+00  2.6945920328134227e+00  2.6917006706849245e+00  2.7938037034120016e+00  2.7991872832438118e+00  2.7217224318207731e+00  1.9086277886654530e+00  2.6649706284093697e+00  2.6404866066774919e+00  2.0375734051454852e+00  2.8029544911807625e+00  1.7754890660742060e+00  1.3639765727836182e+00  1.1643747347337192e+00  2.2944430332865888e+00  1.1694765589630871e+00  2.7764935780690481e+00  1.0146268245763994e+00  8.3809366527897278e-01  2.2340270423656667e+00  8.9812157055234898e-01  2.7230680598410499e+00  2.4102864162453472e+00  2.6912376308904373e+00  2.1885441731306523e+00  1.3498453196717621e+00  8.2823171397171580e-01  2.6663500072824924e+00  2.0537798467383497e+00  1.7495149465858919e+00  8.5646915354212938e-01  2.5912571422311670e+00  9.9705291123046003e-01  1.3413579852029498e+00  1.0849625860571108e+00  2.0244484496717821e+00  2.4355389970373800e+00  1.0531805291592715e+00  2.7523492915712855e+00  2.7839740222603506e+00  2.5146950664313086e+00  2.3864675506520983e+00  2.3645872273945487e+00  2.2881850486080428e+00  1.5597286464681801e+00  8.3208926010742434e-01  1.8454620293319193e+00  2.7127432705542169e+00  2.2670845730015876e+00  2.4242230006132952e+00  2.3645872273945487e+00  2.4156645400050270e+00  1.0223892307834923e+00  8.1017949614856177e-01  9.1749080867087762e-01  8.1914108865686275e-01  1.4529402881594531e+00  1.1873311850957857e+00  2.3710480853176432e+00  2.2198922244058052e+00  2.0041073163910745e+00  2.0041073163910745e+00  1.1069642214941839e+00  1.6139266723588181e+00  9.2076793781832911e-01  2.5632005569187126e+00  2.6404866066774919e+00  9.7754738207240099e-01  1.5218818598530708e+00  1.3069922762661177e+00  1.4908461346230746e+00  8.0029489134512199e-01  9.6965006417563260e-01  2.5642953300824542e+00  2.0857340912680318e+00  8.2823171397171580e-01  2.6596007216523314e+00  2.7283835243201477e+00  1.9737326262324795e+00  2.7542522253947688e+00  1.3012281658322797e+00  8.3104941896345375e-01  8.1356472251731948e-01  2.7999833530304059e+00  2.2839834501392868e+00  2.5900507406737701e+00  2.7614619581075108e+00  2.4880161392439359e+00  2.0637375346918234e+00  1.1144135763300771e+00  8.0870568037963531e-01  2.7969555122480454e+00  1.8234937490534961e+00  2.0088468908734116e+00  1.9946481055663090e+00  1.3164637068996625e+00  2.2964604076626012e+00  1.5934070121300734e+00  1.6121610977011234e+00  1.2517481735846323e+00  2.0041073163910750e+00  1.2534467613553439e+00  1.2534467613553448e+00  9.7754738207240088e-01  1.6139266723588177e+00  2.0041073163910745e+00  1.6139266723588190e+00  9.7754738207240122e-01  2.7898022747781770e+00  9.7754738207240133e-01  8.2823171397171613e-01  9.7754738207240122e-01  2.0041073163910745e+00  1.6139266723588190e+00  1.2534467613553448e+00  2.3645872273945487e+00  2.0041073163910750e+00  1.6139266723588181e+00  2.7898022747781770e+00  2.6404866066774919e+00  8.2823171397171602e-01  8.2823171397171602e-01  2.3645872273945483e+00  2.3645872273945487e+00  1.2534467613553444e+00  2.3645872273945483e+00  2.7898022747781770e+00  1.2534467613553444e+00  2.3645872273945487e+00  2.6404866066774919e+00  8.2823171397171591e-01  2.0041073163910745e+00  1.2534467613553439e+00  1.6139266723588184e+00  1.6139266723588184e+00  1.2534467613553444e+00  2.7898022747781770e+00  2.6404866066774919e+00  8.2823171397171591e-01  9.7754738207240088e-01  2.1350917592798724e+00  2.4847181186887868e+00  2.1295248267410849e+00  2.7793491419329226e+00  9.5011966108545742e-01  2.0137546545916036e+00  1.8251000129487582e+00  1.8804188989222890e+00  2.2816502187885979e+00  1.1875702603715654e+00  2.7565252277652559e+00  2.8036094331740276e+00  1.5283443671158430e+00  9.7302164248833745e-01  8.1238906156896462e-01  9.8793951154462256e-01  1.2424052061624324e+00  2.6504767818798096e+00  2.7814917220819031e+00  2.6125311027987070e+00  2.3154878963063616e+00  2.5451606744168394e+00  1.5656483435586530e+00  1.6281552273981283e+00  8.4011269158247159e-01  1.1593201728553195e+00  1.6818917527315753e+00  2.6043182928023567e+00  2.7952954542194397e+00  8.1445138983819143e-01  2.6705415904345129e+00  8.2550508304383630e-01  8.8726573319351731e-01  2.5378603736756777e+00  1.3518900616402503e+00  2.6796345553375058e+00  1.3355330635870324e+00  2.1775342794474009e+00  2.7692722169817241e+00  2.7060181682322337e+00  1.3405393671131551e+00  2.4154911081164756e+00  1.1777473894525483e+00  2.2140400844695827e+00  2.7892943964920409e+00  1.4717958728813600e+00  1.2708576706837074e+00  1.5239134290484042e+00  2.6948338382853803e+00  2.6199405941122667e+00  2.3849391163797824e+00  2.5721924628802206e+00  1.2640871352794310e+00  2.7389046110829809e+00  1.2895898718732648e+00  1.2083021503811551e+00  1.3101068788623367e+00  1.6860609066921832e+00  1.7910998710640584e+00  2.1069965006411113e+00  1.7759809401672908e+00  1.6886816920357104e+00  1.4871728986676322e+00  2.7997842068504144e+00  8.1833497752310003e-01  9.3267142158207172e-01  1.0165798769956051e+00  2.7860563164347631e+00  9.8235312172150779e-01  2.6959752317486374e+00  2.6072213300124432e+00  2.4083276080041109e+00  2.4393432398608490e+00  2.0612534209142064e+00  2.1256730992990560e+00  1.4203260672539235e+00  2.7575223513542388e+00  1.1630677434319847e+00  1.6718759087921715e+00  2.1682208891840955e+00  2.7583615137026927e+00  2.3903434999152608e+00  1.0144649203845360e+00  1.3555840686867766e+00  2.7115399673853697e+00  1.8873551013919450e+00  2.5014008901317837e+00  1.0296953209955038e+00  1.0695237769606469e+00  2.7437352264854233e+00  1.2616346839691164e+00  1.3350477619637811e+00  1.8078090609778044e+00  1.0484405827847372e+00  9.8236436096179958e-01  9.6015555814894815e-01  9.7118222625330775e-01  8.0941286333929152e-01  2.5443980763878438e+00  2.3163896935810575e+00  8.0221657173731664e-01  2.7456755780136111e+00  2.1294433513118531e+00  1.6664200892824934e+00  8.7968737800574293e-01  1.6999158302325834e+00  2.3989148800911964e+00  8.0064265148190250e-01  8.4954039218514243e-01  2.6954092353553785e+00  2.6157529243653110e+00  2.7760717121947684e+00  1.5655746203501253e+00  1.8146463603985710e+00  1.8082155506442983e+00  2.4819841556298017e+00  1.6693018951304817e+00  2.1838793340208884e+00  1.4759366894421024e+00  2.2753020712830687e+00  8.3745134362477891e-01  2.3897638124910974e+00  2.6666600365819768e+00  9.0423887403608427e-01  9.5318374480597579e-01  1.0206181768273788e+00  2.3031302951794843e+00  1.88259613034