<?xml version="1.0"?>
<VTKFile type="UnstructuredGrid"  version="0.1"  >
<UnstructuredGrid>
<Piece  NumberOfPoints="15681" NumberOfCells="30848">
<Points>
<DataArray  type="Float64"  NumberOfComponents="3"  format="ascii">0 1 0  0 0 0  1 0 0  1 1 0  0.5 0 0  1 0.5 0  0.5 1 0  0 0.5 0  0.5 0.5 0  0 0.25 0  0.25 0 0  0.25 1 0  0 0.75 0  1 0.25 0  0.75 0 0  1 0.75 0  0.75 1 0  0.7083333333333333 0.2916666666666667 0  0.2916666666666666 0.7083333333333334 0  0.375 0.25 0  0.75 0.625 0  0.2569444444444444 0.4652777777777778 0  0.5366379310344828 0.7535919540229885 0  0.1875 0.1875 0  0.8125 0.8125 0  0.869047619047619 0.375 0  0.1450441919191919 0.6052714646464646 0  0.375 0.8690476190476191 0  0.5526960784313725 0.1825980392156862 0  0.8385416666666666 0.1614583333333334 0  0.1614583333333333 0.8385416666666667 0  0.6736111111111112 0.4652777777777778 0  0.1367521367521368 0.3477564102564102 0  0.6570970491253563 0.8648656830417855 0  0.5102479397556124 0.3386260301221938 0  0.3654513888888889 0.5737847222222222 0  0.6929750044954185 0.1362784921584263 0  0.388576102743835 0.411911725237599 0  0.6091269841269842 0.5942460317460317 0  0.875 0.6875 0  0.427278890279516 0.119889445139758 0  0.8544456845238095 0.5213913690476191 0  0.125 0 0  0 0.125 0  1 0.875 0  0.875 1 0  0.1280008648150532 0.4769292340226777 0  0.2695382451711197 0.3321750950221553 0  0.7031567235715964 0.7447810921428012 0  0.625 0 0  0.375 0 0  0.125 1 0  0.875 0 0  0 0.375 0  0 0.625 0  1 0.375 0  0.375 1 0  1 0.125 0  0 0.875 0  0.625 1 0  1 0.625 0  0.2979288363930608 0.1201429454643536 0  0.410919540229885 0.7484605911330049 0  0.5325041980395562 0.878905151526474 0  0.4831670727569156 0.6331060043826487 0  0.1735997378973042 0.7204747378973043 0  0.2534919507575758 0.5772372159090909 0  0.2633928571428572 0.8876488095238095 0  0.8199404761904761 0.2730654761904762 0  0.75830270586982 0.3919383189517417 0  0.5750282248382511 0.4237522353023667 0  0.6008360210023379 0.2794828358598495 0  0.08163442644334186 0.6821295860397322 0  0.08333333333333333 0.1875 0  0.2028380815996574 0.08844602719988583 0  0.2766521142611967 0.2325436572164097 0  0.90625 0.78125 0  0.890625 0.890625 0  0.7545696325008384 0.8973565441669461 0  0.5625 0.08086590340834317 0  0.09077380952380953 0.09077380952380952 0  0.4610923478694773 0.209034015149656 0  0.7542527598351648 0.5248380520595106 0  0.6459235536037465 0.3619913988405765 0  0.7560381768882634 0.20506142233852 0  0.07073252688172042 0.8125 0  0.0924753097241701 0.9078102849914793 0  0.9292674731182795 0.1875 0  0.9075246902758297 0.09218971500852073 0  0.8125 0.07073252688172045 0  0.2400955776842301 0.7869705776842302 0  0.9121050213379069 0.2781978201831695 0  0.7916878157143976 0.7239689078571988 0  0.9345238095238094 0.4375 0  0.4375 0.9345238095238095 0  0.3725616989755203 0.6651895248862173 0  0.06536271996350887 0.5625 0  0.9348362560379583 0.5625 0  0.456646798987055 0.8277247094351965 0  0.1875 0.9355758238725954 0  0.6169761231634859 0.6939779188977889 0  0.6226854751147515 0.7827911461419014 0  0.3305695598137626 0.7901697871282585 0  0.5865305325818898 0.5101085479043448 0  0.6622701297028378 0.2177663989757395 0  0.1354166666666667 0.2591702279202279 0  0 0.3125 0  0.2094429575680048 0.3936361846162499 0  0.836666296419157 0.607917407161686 0  0.6875 1 0  0.214261555450504 0.6492551722020035 0  0 0.4375 0  0.07731537126068377 0.40625 0  0.3427725432967068 0.4879566233699599 0  0.3550792513951871 0.3331953632609953 0  0.4462473953896857 0.2887834789342508 0  0.4747801464819794 0.417386052030127 0  0.8229836475148948 0.4443292349237342 0  0.7322605135514757 0.8199240278289671 0  0.6756431877205955 0.5468989748126787 0  0.1968419507215863 0.5194573482612496 0  0.3285590277777778 0.9345238095238095 0  0.8125 1 0  0.4198917601920009 0.5134893045331258 0  0.5232405503206691 0.2595791787880157 0  1 0.9375 0  0.1987510870015086 0.3025185951894431 0  0.5625 1 0  0.6005390654136388 0.9228110509230952 0  0.6411254848194414 0.07704872765442942 0  0.3357233162523242 0.1855113224530532 0  0.6730653396610877 0.6393887462324165 0  0.310966987234063 0.6240019765311626 0  0.7368737836204349 0.07457755202327881 0  0.6192316414418171 0.1485238406378594 0  0.5432429670607106 0.678552703844006 0  0.4754371679695679 0.7103946803120881 0  0.07501324890749672 0.3043839897335739 0  0.5358146975860403 0.5688321463205916 0  0.3115271739500156 0.3982137365971444 0  0.3625191397122174 0.0767854603650549 0  0.5024029442563831 0.1264128223758444 0  0.4375 0 0  0.4699946908887376 0.06379961173775725 0  0.9375 0.71875 0  0.9272105898044465 0.635671179608893 0  0.9375 1 0  0.6690971819568612 0.9331530898202766 0  0.1073454944778885 0.7499206387638554 0  0.8699082999280406 0.2232403652524313 0  0.5773118091863964 0.3548027349159383 0  0.1354166666666667 0.1428571428571428 0  0.3125 0 0  0.8241684193077341 0.9257452995055244 0  0.4352314948354036 0.3586940847489378 0  0.4351301473778832 0.5819726043539077 0  0.8073232928518163 0.3419398170341962 0  0.7775949246947366 0.1298519409204575 0  0.6875 0 0  0.7413513991851041 0.457933324954483 0  0.939453125 0.841796875 0  0.5630355154606987 0.8171875156478349 0  0.9345238095238095 0.3461466592368577 0  0.9375 0 0  1 0.0625 0  0.0625 1 0  0 0.9375 0  0.06552178593177167 0.4969053669623468 0  0.1424866619031703 0.4130277709291224 0  0.1275287182444726 0.5422946908002588 0  0.2637686595586339 0.06413888464529549 0  0.2524263535491086 0.1697437503243817 0  0.7367218397988525 0.6888573970660841 0  0.0625 0 0  0 0.0625 0  0.8463594539285995 0.7578283617857982 0  0.3128751192101563 0.2851997374369947 0  0.4015281788351144 0.1806421385113692 0  0.1910251795116588 0.4553332197174453 0  0.287797471442006 0.5222621440543902 0  0.3962628745986055 0.8097380085535307 0  0.3505895299554843 0.7304878890838692 0  0.5019151500495276 0.9356042615328103 0  0.9374389419410134 0.4999931039076005 0  0.3125 1 0  0.1875 1 0  1 0.5625 0  0.4375 1 0  1 0.3125 0  1 0.4375 0  0.8125 0 0  1 0.1875 0  0.5625 0 0  0.1875 0 0  0 0.1875 0  0 0.5625 0  0 0.6875 0  0 0.8125 0  1 0.6875 0  1 0.8125 0  0.8021696218581627 0.6612893947866073 0  0.06154922295426143 0.6239401126946708 0  0.9359375 0.9359375 0  0.4666158024849896 0.7691515918155014 0  0.2318201265217025 0.7064974250277525 0  0.1565954253579966 0.6635489312486841 0  0.1598132503680848 0.7787147500325552 0  0.3146529991605639 0.8510876378205265 0  0.1461873209418733 0.05982804528877814 0  0.06109554988524315 0.2446551776247686 0  0.8054950308560754 0.5564226538848541 0  0.470541749491976 0.8853316336952531 0  0.6948472567465137 0.4042308563372457 0  0.8802828472348889 0.4658893256343853 0  0.6788075634946739 0.7974194205806069 0  0.2155048659603867 0.2428201584940968 0  0.8131223143423806 0.2132171049028394 0  0.4330798005432235 0.6671274900735726 0  0.6015279126162613 0.2187368078743274 0  0.8061636571464289 0.8703766630361714 0  0.7008230445061776 0.3478568388444072 0  0.8638466246958771 0.3147095987735538 0  0.204801534004265 0.8789209409594009 0  0.2449006736431132 0.9424182882803838 0  0.7611268409371427 0.2643056884799992 0  0.7552800864046191 0.7678006649959446 0  0.5983639638906616 0.864113435029236 0  0.1956559506814437 0.577281203577426 0  0.3527670268164207 0.1320469097565204 0  0.7530364577483248 0.3262386077083089 0  0.4535919187979363 0.4690107087451527 0  0.8824869791666666 0.8336588541666666 0  0.8814453125 0.9451171875 0  0.5582987942628019 0.622421666543858 0  0.6817532446064828 0.6939001801354731 0  0.3830295138888889 0.9450968952922078 0  0.4140603937012541 0.05211333372716105 0  0.5535864501303013 0.3060591985391672 0  0.6560130086346878 0.2729726562211558 0  0.890203140221684 0.5948314305427268 0  0.7043857725999024 0.593980890020804 0  0.5105843922695152 0.8016828014338627 0  0.05365910753708378 0.7315110031682004 0  0.616904573672261 0.4621186633436136 0  0.5338511646455415 0.387875898899613 0  0.5231769258947843 0.4477682463140762 0  0.650302973237622 0.7370722302085519 0  0.3927483139621257 0.4662414504529014 0  0.8034595960585199 0.4972538342758211 0  0.7738337841682438 0.9496376207663251 0  0.7193737507158268 0.954685447650112 0  0.482525916480686 0.5528257169991676 0  0.2533501157346781 0.2809495420003238 0  0.3118487924482243 0.5702930126570319 0  0.6257598847669529 0.4104163315430518 0  0.1354166666666667 0.1955605158730158 0  0.04166666666666666 0.15625 0  0.3956448985530264 0.6174149462065157 0  0.8102897701818546 0.3938784238208349 0  0.2641154190013625 0.8344469561943118 0  0.642852220770013 0.5068794586563659 0  0.05271458179508221 0.355846947336007 0  0.7021551360070266 0.8921457280225779 0  0.5692125776683765 0.1328512638850284 0  0.5206162811937602 0.04865158770992991 0  0.6001838442201555 0.04540556991297563 0  0.2597716608242787 0.4118346398477178 0  0.4040584599473195 0.3179589136784675 0  0.1480337679295207 0.8941560631483065 0  0.1344356707112281 0.9466251177415842 0  0.7114696411829317 0.4983917389078826 0  0.7585704698442475 0.5751926345944629 0  0.2189131956390871 0.04022068508159698 0  0.2476935455192043 0.1123642267635843 0  0.185995005654517 0.1365524537205238 0  0.6223414373308711 0.643380839165121 0  0.5732602596637543 0.7190051747306219 0  0.268358222364537 0.6586246524467934 0  0.3265879848129173 0.2369791782191225 0  0.1267095595787346 0.7034787238999181 0  0.1115202922226038 0.6421997933884982 0  0.3128688392940203 0.07260997451790079 0  0.550724900485678 0.9253360991633187 0  0.7142608810459105 0.2384904702214873 0  0.7045869185243887 0.1871826897887429 0  0.890625 0.734375 0  0.953125 0.765625 0  0.2111812642821677 0.8286209446459138 0  0.9590293078204457 0.09375 0  0.953431269039847 0.1435719386408004 0  0.04097069217955424 0.90625 0  0.04656873096015299 0.8564280613591996 0  0.1078743037981226 0.8541621766048062 0  0.8921256962018773 0.1458378233951939 0  0.8521576979194619 0.1084496634207678 0  0.8655663982740958 0.05464346096571447 0  0.04005659640905543 0.09375 0  0.1001448316533417 0.0424677624422826
[...]
<PointData  Scalars="f_14608"> 
<DataArray  type="Float64"  Name="f_14608"  format="ascii">1.4257792915650702e+00  1.4257792915650707e+00  1.4257792915650702e+00  1.4257792915650702e+00  1.4257792915650707e+00  1.4257792915650711e+00  1.4257792915650711e+00  1.4257792915650707e+00  1.4160187485703033e+00  2.4257792915650707e+00  2.4257792915650707e+00  2.4257792915650707e+00  4.2577929156507055e-01  2.4257792915650707e+00  4.2577929156507055e-01  4.2577929156507055e-01  4.2577929156507055e-01  1.4189166675541929e+00  1.4189308510364909e+00  7.1170002861987824e-01  2.1256651028347155e+00  4.3382689074045366e-01  2.3868331464758472e+00  2.1290456574290730e+00  7.1464865925731025e-01  2.4209337806944973e+00  4.2079002201981608e-01  2.4206484067598568e+00  4.2407459161973315e-01  1.4226230814906595e+00  1.4226092810050273e+00  2.1833286529782030e+00  1.5186124486527686e+00  1.2838743352637199e+00  6.0371299618371432e-01  1.0443398859897095e+00  5.4310022120574597e-01  4.6666462990652868e-01  2.3738205269449453e+00  1.0392176320969200e+00  1.1296533443672439e+00  2.1240134212996673e+00  2.1328860727516181e+00  2.1328860727516181e+00  7.1867251037852209e-01  7.1867251037852209e-01  8.0872881055173951e-01  8.2229331431719865e-01  1.7407629233056783e+00  7.1867251037852309e-01  2.1328860727516181e+00  2.1328860727516181e+00  7.1867251037852287e-01  2.1328860727516181e+00  7.1867251037852309e-01  2.1328860727516190e+00  2.1328860727516190e+00  2.1328860727516181e+00  7.1867251037852287e-01  7.1867251037852264e-01  7.1867251037852264e-01  1.9144360669863369e+00  2.2606535344663836e+00  1.9497016089094015e+00  2.0837889574060608e+00  8.0344204141719844e-01  5.4450471835117931e-01  2.2355351959090655e+00  1.9727036604992978e+00  2.2288000609612650e+00  1.4087678209631476e+00  7.3491257504248919e-01  4.2672367384518445e-01  2.4149217709007016e+00  2.3900174311704578e+00  1.3622592707467196e+00  4.9933232790903553e-01  4.4304275864380410e-01  6.0679027611614356e-01  6.3905824622559326e-01  2.3335933173867978e+00  5.4247582895662116e-01  2.4016176534073530e+00  1.4671290503934797e+00  1.1788406715283319e+00  7.5439019726084122e-01  1.4262373710827279e+00  2.0936397778294706e+00  1.4226503765038594e+00  7.5443954945079839e-01  1.5899870083913437e+00  2.3536567441331329e+00  1.3221141655041928e+00  2.1435392891530527e+00  2.1437286867289118e+00  1.6525558940310847e+00  7.0341329307459000e-01  1.4400071449545531e+00  2.3969350259154054e+00  2.1228933324681507e+00  2.3453501800881456e+00  1.9788934173217727e+00  2.1078035108364968e+00  1.9868928362618294e+00  7.3516789980882902e-01  2.0371440043154792e+00  2.3496588240763572e+00  8.1608602557648180e-01  1.7617434913954493e+00  5.0189975905378414e-01  6.6348037249798031e-01  1.8084627239301603e+00  1.5260712788185884e+00  5.4253705143478337e-01  4.9237325577121432e-01  4.2213665331417927e-01  7.8946552176768015e-01  2.4143278259453407e+00  1.0989338992139037e+00  2.4023356015568647e+00  4.4202816388569149e-01  2.4202079040742652e+00  5.0189975905378381e-01  1.0096839587892912e+00  4.3936230119379349e-01  1.0430958591999799e+00  1.4123806238590286e+00  1.0430958591999806e+00  1.2767526229618975e+00  4.4314434355760762e-01  1.2873251375722037e+00  2.3416399489715185e+00  1.0204591500665401e+00  4.9725160154226061e-01  4.2734896233748176e-01  2.4017181831772638e+00  2.3372879262054305e+00  2.1106413655968224e+00  2.0274005615684958e+00  4.4954342368999534e-01  1.7952843556670635e+00  6.9741621804239962e-01  1.8084627239301603e+00  1.2126620136061255e+00  5.9214002586008441e-01  1.0382862621744016e+00  1.0430958591999799e+00  8.2431006741467161e-01  6.4113585749512558e-01  1.9747828075692675e+00  1.0032449995218351e+00  2.4076434722816491e+00  2.3496588240763572e+00  4.2374912837929568e-01  4.5487369571291936e-01  1.5236309734338456e+00  2.2264670796225436e+00  8.7326622975667390e-01  5.0189975905378403e-01  2.3680713093586978e+00  4.4345097014019946e-01  2.1034000727203632e+00  2.4049103946937915e+00  1.0430958591999802e+00  1.8084627239301607e+00  1.8084627239301607e+00  1.0430958591999802e+00  1.0410660983547886e+00  1.0792441223695908e+00  5.4522293176052306e-01  2.3064463477727486e+00  1.8911989697055849e+00  1.8697238563111700e+00  1.8084627239301603e+00  1.8084627239301603e+00  8.1289506686866186e-01  8.4094021813893483e-01  9.2662575277641412e-01  6.2427364180841394e-01  4.8797217061399017e-01  2.3819333889256007e+00  1.9063697907053265e+00  1.8058062081118766e+00  1.8065238510370800e+00  2.3496588240763572e+00  2.3496588240763572e+00  1.0430958591999806e+00  1.8084627239301612e+00  2.3496588240763572e+00  1.8084627239301612e+00  5.0189975905378392e-01  2.3496588240763572e+00  1.0430958591999810e+00  2.3496588240763572e+00  2.3496588240763572e+00  1.0430958591999810e+00  5.0189975905378403e-01  5.0189975905378392e-01  5.0189975905378414e-01  5.0189975905378381e-01  1.6476052537932235e+00  5.0445227755135014e-01  7.0406206923866932e-01  2.4147758757858231e+00  1.0418711449443672e+00  5.1658440510092740e-01  1.0451748511437087e+00  2.2845826513495169e+00  2.3863476400144306e+00  2.3633132335170659e+00  2.1824430753133779e+00  2.2085264907474667e+00  2.0007944217870124e+00  2.2443997103465261e+00  1.5687975924526996e+00  1.6795277311754235e+00  1.5862485411940104e+00  2.0059811110181038e+00  5.1532278627723316e-01  5.2724112479089313e-01  1.7193359330991960e+00  2.3225375145694391e+00  1.9249270169105073e+00  2.3476954908332464e+00  1.5791473341021478e+00  1.2757755874088839e+00  1.6547925207963758e+00  4.3000494483021079e-01  1.5168484287343482e+00  1.8970375251197222e+00  9.4886513477570167e-01  4.4572613662888666e-01  5.3802747981411991e-01  2.3235430610032624e+00  2.1225941207722583e+00  2.3057181412224184e+00  1.6347760775176674e+00  6.4573526473207699e-01  9.8699288556475839e-01  1.5157844189216059e+00  2.3718803813947282e+00  2.3438148581333151e+00  4.4809471002161871e-01  1.8929520778911464e+00  9.4423715464619717e-01  1.2346357117192437e+00  2.0688562660299965e+00  6.4192197579601729e-01  2.3690325796639424e+00  4.3810731664340058e-01  5.3579501042114230e-01  1.6364342751147805e+00  1.2057471100984618e+00  7.4282429552339158e-01  1.6422508651157577e+00  2.2962007600772938e+00  2.3715560530916395e+00  1.4988571435736533e+00  2.3787300180176114e+00  2.0018426597302992e+00  2.2248219151626927e+00  1.9673379649967651e+00  8.6381296599968116e-01  4.6644997620368817e-01  1.0023370073784763e+00  6.3148736055687482e-01  5.3728101919241211e-01  4.3297730235896614e-01  1.6856903981818332e+00  1.9123698559117499e+00  2.3858962745903725e+00  2.2831923489814780e+00  2.4229332541406929e+00  2.1926471006395274e+00  2.3204918316830794e+00  2.4123162740378632e+00  2.3828441873752779e+00  9.7575421921758632e-01  1.0305177630111415e+00  5.4648938451187468e-01  4.2224770147105278e-01  2.0825069755738208e+00  1.5727730572051766e+00  1.1272699168116118e+00  7.9182135728024428e-01  7.1550972090390919e-01  4.4348026234864785e-01  1.6692873978595395e+00  1.7507078994411485e+00  1.9973093856712993e+00  1.0994998937496052e+00  8.5227936593829612e-01  1.1873864667676943e+00  1.6599292907056498e+00  1.1785372482929795e+00  9.4397835504569105e-01  2.1703067270834846e+00  2.2059419719606148e+00  1.3285570848264168e+00  1.6913810241442768e+00  2.3545328696801238e+00  1.9663738473757744e+00  4.3686369877285253e-01  5.1685825412784792e-01  7.8360706273845537e-01  6.3854319613268340e-01  9.0083227265452948e-01  2.4171927467297589e+00  4.1848160391824535e-01  2.4128099076991605e+00  2.3436309555203794e+00  5.0849265399341204e-01  5.0934430884379389e-01  2.4235900005662687e+00  5.8774823615053484e-01  1.1756308277714662e+00  1.7128752184121692e+00  1.0515990689686157e+00  1.3442220876089626e+00  5.4864202824868336e-01  2.2738955282694886e+00  7.8353414443741010e-01  1.1945476789402130e+00  1.9943344796340619e+00  1.5500608547278407e+00  2.1770587572138451e+00  2.1178137575390199e+00  2.3548763623035018e+00  2.2432087979418927e+00  1.1766402715244915e+00  2.2499598414585757e+00  2.3432143527735989e+00  4.6177470303074702e-01  4.1837277836252568e-01  1.2446406862626471e+00  9.9924967929671238e-01  2.2223463355869613e+00  1.2121811357285992e+00  2.1982833570904132e+00  2.3331992012112250e+00  1.8156445824199374e+00  4.9628982511678360e-01  1.0335272253448267e+00  1.0495784763034348e+00  1.8443214753119659e+00  4.2810673081483741e-01  4.9466768943419293e-01  1.3120300308786517e+00  7.5243399155409962e-01  4.2492921253730515e-01  7.2362821444882364e-01  1.6877559446202948e+00  1.6259844307502902e+00  2.4244100024113475e+00  7.1183877607860246e-01  2.0377500519518446e+00  2.2964273343890418e+00  1.8743958899050928e+00  5.0051244833155106e-01  1.4238999462488020e+00  1.4246886821260591e+00  1.8242827456174315e+00  1.4247998175601855e+00  1.4254574516348550e+00  1.0252724138090006e+00  1.9338854213168433e+00  2.0180140681503409e+00  4.4299068774943573e-01  5.0051077810134958e-01  1.2224188595238525e+00  1.8047524064041076e+00  7.2191668996961866e-01  4.4222175216719756e-01  2.4157591992962852e+00  6.5033050561261596e-01  2.4220619322258785e+00  6.1099542975578813e-01  1.0496165526455339e+00  7.5156935067313435e-01  6.4541409758289858e-01  6.2474089438486768e-01  4.1764046194159482e-01  1.9675747162924724e+00  2.4067739021012478e+00  2.1984505934564949e+00  1.7987330920217404e+00  2.3869771999831499e+00  1.2152006543318736e+00  1.5315790636872839e+00  4.3241457147830342e-01  4.2143246410017843e-01  4.6009308668224141e-01  2.4113669645604419e+00  1.6592534746468193e+00  4.2051359127554827e-01  5.7408560141211018e-01  2.1992380815591539e+00  8.4901072146243750e-01  2.4244048125603128e+00  1.8403614638457697e+00  2.3885787774505061e+00  2.4188676879051347e+00  2.1269698675152919e+00  2.3147718436246238e+00  9.3227829228655312e-01  6.7951238195530894e-01  1.0555931885184804e+00  1.2306889695489418e+00  7.1838196644763097e-01  4.7650071433900959e-01  1.7208876310937511e+00  2.4194228797384043e+00  1.7475222941813791e+00  7.7848566260532459e-01  5.6006681616743370e-01  2.4065645719683011e+00  2.1811494452639866e+00  1.2255464515330674e+00  1.0838302594907598e+00  2.3938729725995311e+00  4.5690819340937489e-01  5.0474602882957453e-01  1.5568281493084322e+00  1.2979578063684325e+00  5.8458441170477571e-01  4.2983059262376833e-01  1.3430680203996401e+00  2.2229625809951217e+00  2.1534726959994224e+00  9.5324056674577362e-01  1.4197469406433874e+00  2.4065645719683011e+00  1.7686147512024997e+00  1.8285789694035701e+00  2.3905054950172975e+00  2.3331375958052698e+00  7.7479379282512084e-01  1.9733814401849974e+00  8.3421471648246748e-01  2.2909032917965888e+00  2.2155039848332172e+00  4.3224415131613142e-01  4.2723841473830115e-01  5.1759859397334129e-01  5.7966052803988521e-01  7.4968119928517152e-01  5.9452101729934737e-01  2.3198250588553884e+00  5.4278580898909035e-01  1.4407462340733572e+00  8.7020905854546837e-01  2.2011195900057965e+00  1.5053923214859783e+00  1.6185020281024027e+00  9.5767251916466356e-01  4.2522214429370708e-01  2.4183942789380528e+00  1.9813495245846731e+00  1.6816589839279104e+00  1.3488915027521342e+00  2.1993769959874707e+00  7.1016508135705314e-01  7.6836531538266717e-01  4.4389338402066841e-01  2.4066593810939212e+00  1.0679134187291117e+00  5.9430967926252509e-01  6.8662202904385350e-01  4.9578488535949383e-01  6.3885981277706072e-01  9.6998589514658373e-01  1.6026591487065631e+00  9.8626550734900575e-01  5.0973160085735825e-01  2.4118999551635110e+00  2.4179642790155911e+00  2.2832943428191301e+00  2.4222167116860938e+00  2.2572489038676160e+00  4.3488394984552237e-01  4.6713466692233285e-01  2.1840051116971044e+00  4.6886340521677938e-01  5.9430967926252543e-01  4.2075738621951897e-01  1.3044300530923691e+00  4.2891302027407924e-01  2.1229500093619604e+00  1.9683642276408897e+00  7.4905747000931744e-01  1.3448205359931595e+00  1.5390388063204323e+00  1.3242063068554550e+00  2.2572489038676160e+00  1.2351420778572342e+00  2.4183483990804842e+00  8.3469250452198041e-01  5.6490715302378913e-01  5.2995523116741783e-01  1.6674884715458278e+00  1.9374336736116367e+00  1.0417373456891512e+00  2.2572489038676160e+00  2.4065645719683011e+00  2.2944374622261359e+00  2.1138751396598341e+00  1.8898820477381146e+00  4.8558640946235787e-01  7.2776803275603485e-01  2.0137365504662430e+00  4.3080854692380771e-01  1.1487687517168175e+00  2.1213761461629859e+00  8.1030381981293387e-01  2.4187686535469397e+00  4.4499401116184023e-01  1.3519073121055825e+00  2.1940934179509286e+00  2.3114514384957663e+00  1.5360152560681555e+00  1.8239148039866755e+00  1.5040926693412915e+00  2.4172990953622397e+00  2.3335989429790023e+00  1.8830676288978487e+00  2.2170224470531181e+00  2.2072408738026819e+00  1.8747609220206913e+00  1.2576415166470805e+00  6.0621158314669576e-01  9.4350291645527196e-01  1.9348580922076049e+00  1.2861996997864871e+00  4.8955781027683931e-01  1.7837463468773453e+00  2.4065645719683011e+00  2.3722014386428847e+00  2.1722910126964736e+00  2.2445319919131315e+00  4.9724819839721829e-01  4.6783994421191127e-01  5.4130603169637692e-01  5.9220732323816172e-01  1.6208696135811986e+00  2.3603090703115339e+00  1.0428899941603853e+00  8.2031589743720079e-01  1.7575644436051285e+00  6.1560826813083591e-01  1.0502208693659760e+00  1.3118515916463864e+00  1.1659530350738929e+00  2.3130000587648682e+00  5.4397824911503123e-01  4.2989074206421579e-01  8.0769724902753282e-01  1.1563154977799608e+00  1.7180974750560152e+00  1.1304765434291344e+00  2.2866589868857750e+00  2.0125169400043585e+00  1.2115816423641776e+00  1.5886003821914396e+00  2.3125878835903584e+00  2.3098995348721640e+00  2.4116742324092133e+00  2.4168679332649399e+00  2.3412848980563532e+00  1.5255622550264953e+00  2.2846065700592746e+00  2.2572489038676160e+00  1.6558967741919481e+00  2.4202274451378676e+00  1.3926448426763596e+00  9.8326787480529809e-01  7.8306164745951257e-01  1.9132082816210723e+00  7.8649326624547977e-01  2.3964519029065050e+00  6.3249875649517417e-01  4.5527614326846144e-01  1.8521759191043434e+00  5.1738579636364879e-01  2.3429319969468709e+00  2.0285181838840058e+00  2.3085271219306098e+00  1.8077969859226031e+00  9.6947757572380622e-01  4.4499401116183990e-01  2.2844709108969261e+00  1.6739504587739327e+00  1.3678667297037739e+00  4.7605509746118058e-01  2.2108464943191479e+00  6.1574068494250733e-01  9.6147031949770290e-01  7.0412081317416719e-01  1.6426782469533046e+00  2.0549379227149314e+00  6.7135022066949779e-01  2.3700458213214453e+00  2.4012289887916269e+00  2.1326837537676191e+00  2.0037863910983318e+00  1.9813495245846728e+00  1.9083095578950886e+00  1.1798331188895372e+00  4.5073843741978692e-01  1.4642792293418077e+00  2.3300588916563409e+00  1.8864554726840435e+00  2.0421701628449216e+00  1.9813495245846728e+00  2.0335908531677744e+00  6.4058556809743750e-01  4.2791095548537034e-01  5.3735032975632602e-01  4.3700890394259079e-01  1.0716472252514941e+00  8.0709600020315719e-01  1.9888569536575393e+00  1.8380293592536743e+00  1.6208696135811986e+00  1.6208696135811986e+00  7.2540548793990245e-01  1.2306889695489422e+00  5.3813955508513478e-01  2.1803930083962531e+00  2.2572489038676160e+00  5.9430967926252509e-01  1.1400853452903434e+00  9.2637770452417478e-01  1.1101078462069840e+00  4.2015018172285007e-01  5.8800862498434825e-01  2.1825786936188702e+00  1.7054695619886782e+00  4.4499401116183990e-01  2.2767109374087724e+00  2.3457873502118081e+00  1.5916892590095537e+00  2.3729722478088240e+00  9.1829689929979330e-01  4.4934395084465378e-01  4.3276560929063412e-01  2.4190390054891346e+00  1.9025274742676108e+00  2.2089256823454835e+00  2.3800586028090454e+00  2.1075057450494148e+00  1.6831678147147475e+00  7.3286562478168082e-01  4.2625114719603668e-01  2.4168523022941844e+00  1.4427093510035336e+00  1.6266345025540003e+00  1.6119479779515082e+00  9.3403214598567452e-01  1.9140285496732996e+00  1.2107557027175420e+00  1.2294567864144963e+00  8.6903199593647251e-01  1.6208696135811991e+00  8.7020905854546815e-01  8.7020905854546882e-01  5.9430967926252498e-01  1.2306889695489418e+00  1.6208696135811986e+00  1.2306889695489431e+00  5.9430967926252531e-01  2.4065645719683011e+00  5.9430967926252543e-01  4.4499401116184023e-01  5.9430967926252531e-01  1.6208696135811986e+00  1.2306889695489431e+00  8.7020905854546882e-01  1.9813495245846731e+00  1.6208696135811991e+00  1.2306889695489422e+00  2.4065645719683011e+00  2.2572489038676160e+00  4.4499401116184012e-01  4.4499401116184012e-01  1.9813495245846724e+00  1.9813495245846726e+00  8.7020905854546837e-01  1.9813495245846724e+00  2.4065645719683011e+00  8.7020905854546859e-01  1.9813495245846731e+00  2.2572489038676160e+00  4.4499401116184001e-01  1.6208696135811986e+00  8.7020905854546815e-01  1.2306889695489425e+00  1.2306889695489425e+00  8.7020905854546859e-01  2.4065645719683011e+00  2.2572489038676160e+00  4.4499401116184001e-01  5.9430967926252498e-01  1.7542770120037057e+00  2.1032122137982157e+00  1.7494098723149549e+00  2.3966079826777449e+00  5.6959827979478950e-01  1.6310881128488806e+00  1.4441085958689757e+00  1.4994171900687823e+00  1.9003346630723350e+00  8.0567427647838252e-01  2.3736312501910697e+00  2.4208014329952494e+00  1.1465765020368195e+00  5.9078739874127062e-01  4.3034216246976059e-01  6.0521557328011411e-01  8.6019301480987864e-01  2.2681613961150293e+00  2.3991512260078940e+00  2.2307321977135843e+00  1.9347307939052545e+00  2.1637402189250579e+00  1.1848191692439374e+00  1.2455020262249930e+00  4.5825577762709208e-01  7.7943671739568821e-01  1.3005143624594182e+00  2.2243917814617604e+00  2.4150883612777698e+00  4.3360099824600828e-01  2.2896423278815350e+00  4.4520343501638465e-01  5.0724517089520049e-01  2.1551596398661670e+00  9.7036451040645466e-01  2.2976277317906866e+00  9.5472604418312179e-01  1.7971591461501444e+00  2.3878270634543131e+00  2.3242765387334465e+00  9.6035307397625191e-01  2.0353307902642275e+00  7.9717145285577529e-01  1.8329309399686593e+00  2.4090701712660718e+00  1.0899653916103871e+00  8.9011644317148031e-01  1.1432576597615269e+00  2.3142061896482717e+00  2.2389868472360557e+00  2.0039991237004200e+00  2.1906435737230647e+00  8.8136474249916197e-01  2.3579606601651713e+00  9.0853257393071418e-01  8.2658885124937198e-01  9.2870517914044592e-01  1.3037557694893371e+00  1.4111086032242954e+00  1.7260574151471197e+00  1.3951965312886683e+00  1.3076866865690000e+00  1.1051623309929983e+00  2.4190048600723264e+00  4.3696685559418547e-01  5.5163309480631439e-01  6.3530250916656983e-01  2.4048720390436467e+00  6.0240938005552414e-01  2.3152908261862435e+00  2.2254112297959550e+00  2.0264600627795710e+00  2.0571781475151809e+00  1.6794941424982948e+00  1.7436703161748395e+00  1.0382606389673155e+00  2.3774927965496304e+00  7.8235956155295006e-01  1.2901127738570728e+00  1.7872661178678133e+00  2.3755769831283744e+00  2.0101168961973337e+00  6.3413338259524199e-01  9.7373753473318359e-01  2.3315051985075579e+00  1.5059913778184451e+00  2.1197530002383989e+00  6.4928038440982505e-01  6.8727018888323144e-01  2.3630621598545622e+00  8.8164090498982572e-01  9.5314068043976508e-01  1.4266640204173888e+00  6.6652102248717715e-01  5.9969248554089238e-01  5.7842014547679488e-01  5.8933590714757189e-01  4.2662231003598705e-01  2.1630058660377114e+00  1.9334532913343161e+00  4.2113057777619278e-01  2.3656217842275473e+00  1.7495946127998281e+00  1.2855038941105390e+00  4.9864037623477481e-01  1.3187867421831168e+00  2.0188695253025783e+00  4.1982504051278896e-01  4.6888855520765022e-01  2.3132874943551500e+00  2.2333778687924548e+00  2.3932445391208961e+00  1.1831171344572176e+00  1.4323178882661487e+00  1.4269666461009072e+00  2.0990518971176986e+00  1.2879674667129632e+00  1.8028337031683732e+00  1.0928981806287053e+00  1.8931179163249825e+00  4.5486970210323729e-01  2.0081533577838511e+00  2.2862099508938201e+00  5.2178485364659477e-01  5.7049651003185631e-01  6.3957099219436220e-01  1.9208606389475797e+00  1.50055919636