<?xml version="1.0"?>
<VTKFile type="UnstructuredGrid"  version="0.1"  >
<UnstructuredGrid>
<Piece  NumberOfPoints="15681" NumberOfCells="30848">
<Points>
<DataArray  type="Float64"  NumberOfComponents="3"  format="ascii">0 1 0  0 0 0  1 0 0  1 1 0  0.5 0 0  1 0.5 0  0.5 1 0  0 0.5 0  0.5 0.5 0  0 0.25 0  0.25 0 0  0.25 1 0  0 0.75 0  1 0.25 0  0.75 0 0  1 0.75 0  0.75 1 0  0.7083333333333333 0.2916666666666667 0  0.2916666666666666 0.7083333333333334 0  0.375 0.25 0  0.75 0.625 0  0.2569444444444444 0.4652777777777778 0  0.5366379310344828 0.7535919540229885 0  0.1875 0.1875 0  0.8125 0.8125 0  0.869047619047619 0.375 0  0.1450441919191919 0.6052714646464646 0  0.375 0.8690476190476191 0  0.5526960784313725 0.1825980392156862 0  0.8385416666666666 0.1614583333333334 0  0.1614583333333333 0.8385416666666667 0  0.6736111111111112 0.4652777777777778 0  0.1367521367521368 0.3477564102564102 0  0.6570970491253563 0.8648656830417855 0  0.5102479397556124 0.3386260301221938 0  0.3654513888888889 0.5737847222222222 0  0.6929750044954185 0.1362784921584263 0  0.388576102743835 0.411911725237599 0  0.6091269841269842 0.5942460317460317 0  0.875 0.6875 0  0.427278890279516 0.119889445139758 0  0.8544456845238095 0.5213913690476191 0  0.125 0 0  0 0.125 0  1 0.875 0  0.875 1 0  0.1280008648150532 0.4769292340226777 0  0.2695382451711197 0.3321750950221553 0  0.7031567235715964 0.7447810921428012 0  0.625 0 0  0.375 0 0  0.125 1 0  0.875 0 0  0 0.375 0  0 0.625 0  1 0.375 0  0.375 1 0  1 0.125 0  0 0.875 0  0.625 1 0  1 0.625 0  0.2979288363930608 0.1201429454643536 0  0.410919540229885 0.7484605911330049 0  0.5325041980395562 0.878905151526474 0  0.4831670727569156 0.6331060043826487 0  0.1735997378973042 0.7204747378973043 0  0.2534919507575758 0.5772372159090909 0  0.2633928571428572 0.8876488095238095 0  0.8199404761904761 0.2730654761904762 0  0.75830270586982 0.3919383189517417 0  0.5750282248382511 0.4237522353023667 0  0.6008360210023379 0.2794828358598495 0  0.08163442644334186 0.6821295860397322 0  0.08333333333333333 0.1875 0  0.2028380815996574 0.08844602719988583 0  0.2766521142611967 0.2325436572164097 0  0.90625 0.78125 0  0.890625 0.890625 0  0.7545696325008384 0.8973565441669461 0  0.5625 0.08086590340834317 0  0.09077380952380953 0.09077380952380952 0  0.4610923478694773 0.209034015149656 0  0.7542527598351648 0.5248380520595106 0  0.6459235536037465 0.3619913988405765 0  0.7560381768882634 0.20506142233852 0  0.07073252688172042 0.8125 0  0.0924753097241701 0.9078102849914793 0  0.9292674731182795 0.1875 0  0.9075246902758297 0.09218971500852073 0  0.8125 0.07073252688172045 0  0.2400955776842301 0.7869705776842302 0  0.9121050213379069 0.2781978201831695 0  0.7916878157143976 0.7239689078571988 0  0.9345238095238094 0.4375 0  0.4375 0.9345238095238095 0  0.3725616989755203 0.6651895248862173 0  0.06536271996350887 0.5625 0  0.9348362560379583 0.5625 0  0.456646798987055 0.8277247094351965 0  0.1875 0.9355758238725954 0  0.6169761231634859 0.6939779188977889 0  0.6226854751147515 0.7827911461419014 0  0.3305695598137626 0.7901697871282585 0  0.5865305325818898 0.5101085479043448 0  0.6622701297028378 0.2177663989757395 0  0.1354166666666667 0.2591702279202279 0  0 0.3125 0  0.2094429575680048 0.3936361846162499 0  0.836666296419157 0.607917407161686 0  0.6875 1 0  0.214261555450504 0.6492551722020035 0  0 0.4375 0  0.07731537126068377 0.40625 0  0.3427725432967068 0.4879566233699599 0  0.3550792513951871 0.3331953632609953 0  0.4462473953896857 0.2887834789342508 0  0.4747801464819794 0.417386052030127 0  0.8229836475148948 0.4443292349237342 0  0.7322605135514757 0.8199240278289671 0  0.6756431877205955 0.5468989748126787 0  0.1968419507215863 0.5194573482612496 0  0.3285590277777778 0.9345238095238095 0  0.8125 1 0  0.4198917601920009 0.5134893045331258 0  0.5232405503206691 0.2595791787880157 0  1 0.9375 0  0.1987510870015086 0.3025185951894431 0  0.5625 1 0  0.6005390654136388 0.9228110509230952 0  0.6411254848194414 0.07704872765442942 0  0.3357233162523242 0.1855113224530532 0  0.6730653396610877 0.6393887462324165 0  0.310966987234063 0.6240019765311626 0  0.7368737836204349 0.07457755202327881 0  0.6192316414418171 0.1485238406378594 0  0.5432429670607106 0.678552703844006 0  0.4754371679695679 0.7103946803120881 0  0.07501324890749672 0.3043839897335739 0  0.5358146975860403 0.5688321463205916 0  0.3115271739500156 0.3982137365971444 0  0.3625191397122174 0.0767854603650549 0  0.5024029442563831 0.1264128223758444 0  0.4375 0 0  0.4699946908887376 0.06379961173775725 0  0.9375 0.71875 0  0.9272105898044465 0.635671179608893 0  0.9375 1 0  0.6690971819568612 0.9331530898202766 0  0.1073454944778885 0.7499206387638554 0  0.8699082999280406 0.2232403652524313 0  0.5773118091863964 0.3548027349159383 0  0.1354166666666667 0.1428571428571428 0  0.3125 0 0  0.8241684193077341 0.9257452995055244 0  0.4352314948354036 0.3586940847489378 0  0.4351301473778832 0.5819726043539077 0  0.8073232928518163 0.3419398170341962 0  0.7775949246947366 0.1298519409204575 0  0.6875 0 0  0.7413513991851041 0.457933324954483 0  0.939453125 0.841796875 0  0.5630355154606987 0.8171875156478349 0  0.9345238095238095 0.3461466592368577 0  0.9375 0 0  1 0.0625 0  0.0625 1 0  0 0.9375 0  0.06552178593177167 0.4969053669623468 0  0.1424866619031703 0.4130277709291224 0  0.1275287182444726 0.5422946908002588 0  0.2637686595586339 0.06413888464529549 0  0.2524263535491086 0.1697437503243817 0  0.7367218397988525 0.6888573970660841 0  0.0625 0 0  0 0.0625 0  0.8463594539285995 0.7578283617857982 0  0.3128751192101563 0.2851997374369947 0  0.4015281788351144 0.1806421385113692 0  0.1910251795116588 0.4553332197174453 0  0.287797471442006 0.5222621440543902 0  0.3962628745986055 0.8097380085535307 0  0.3505895299554843 0.7304878890838692 0  0.5019151500495276 0.9356042615328103 0  0.9374389419410134 0.4999931039076005 0  0.3125 1 0  0.1875 1 0  1 0.5625 0  0.4375 1 0  1 0.3125 0  1 0.4375 0  0.8125 0 0  1 0.1875 0  0.5625 0 0  0.1875 0 0  0 0.1875 0  0 0.5625 0  0 0.6875 0  0 0.8125 0  1 0.6875 0  1 0.8125 0  0.8021696218581627 0.6612893947866073 0  0.06154922295426143 0.6239401126946708 0  0.9359375 0.9359375 0  0.4666158024849896 0.7691515918155014 0  0.2318201265217025 0.7064974250277525 0  0.1565954253579966 0.6635489312486841 0  0.1598132503680848 0.7787147500325552 0  0.3146529991605639 0.8510876378205265 0  0.1461873209418733 0.05982804528877814 0  0.06109554988524315 0.2446551776247686 0  0.8054950308560754 0.5564226538848541 0  0.470541749491976 0.8853316336952531 0  0.6948472567465137 0.4042308563372457 0  0.8802828472348889 0.4658893256343853 0  0.6788075634946739 0.7974194205806069 0  0.2155048659603867 0.2428201584940968 0  0.8131223143423806 0.2132171049028394 0  0.4330798005432235 0.6671274900735726 0  0.6015279126162613 0.2187368078743274 0  0.8061636571464289 0.8703766630361714 0  0.7008230445061776 0.3478568388444072 0  0.8638466246958771 0.3147095987735538 0  0.204801534004265 0.8789209409594009 0  0.2449006736431132 0.9424182882803838 0  0.7611268409371427 0.2643056884799992 0  0.7552800864046191 0.7678006649959446 0  0.5983639638906616 0.864113435029236 0  0.1956559506814437 0.577281203577426 0  0.3527670268164207 0.1320469097565204 0  0.7530364577483248 0.3262386077083089 0  0.4535919187979363 0.4690107087451527 0  0.8824869791666666 0.8336588541666666 0  0.8814453125 0.9451171875 0  0.5582987942628019 0.622421666543858 0  0.6817532446064828 0.6939001801354731 0  0.3830295138888889 0.9450968952922078 0  0.4140603937012541 0.05211333372716105 0  0.5535864501303013 0.3060591985391672 0  0.6560130086346878 0.2729726562211558 0  0.890203140221684 0.5948314305427268 0  0.7043857725999024 0.593980890020804 0  0.5105843922695152 0.8016828014338627 0  0.05365910753708378 0.7315110031682004 0  0.616904573672261 0.4621186633436136 0  0.5338511646455415 0.387875898899613 0  0.5231769258947843 0.4477682463140762 0  0.650302973237622 0.7370722302085519 0  0.3927483139621257 0.4662414504529014 0  0.8034595960585199 0.4972538342758211 0  0.7738337841682438 0.9496376207663251 0  0.7193737507158268 0.954685447650112 0  0.482525916480686 0.5528257169991676 0  0.2533501157346781 0.2809495420003238 0  0.3118487924482243 0.5702930126570319 0  0.6257598847669529 0.4104163315430518 0  0.1354166666666667 0.1955605158730158 0  0.04166666666666666 0.15625 0  0.3956448985530264 0.6174149462065157 0  0.8102897701818546 0.3938784238208349 0  0.2641154190013625 0.8344469561943118 0  0.642852220770013 0.5068794586563659 0  0.05271458179508221 0.355846947336007 0  0.7021551360070266 0.8921457280225779 0  0.5692125776683765 0.1328512638850284 0  0.5206162811937602 0.04865158770992991 0  0.6001838442201555 0.04540556991297563 0  0.2597716608242787 0.4118346398477178 0  0.4040584599473195 0.3179589136784675 0  0.1480337679295207 0.8941560631483065 0  0.1344356707112281 0.9466251177415842 0  0.7114696411829317 0.4983917389078826 0  0.7585704698442475 0.5751926345944629 0  0.2189131956390871 0.04022068508159698 0  0.2476935455192043 0.1123642267635843 0  0.185995005654517 0.1365524537205238 0  0.6223414373308711 0.643380839165121 0  0.5732602596637543 0.7190051747306219 0  0.268358222364537 0.6586246524467934 0  0.3265879848129173 0.2369791782191225 0  0.1267095595787346 0.7034787238999181 0  0.1115202922226038 0.6421997933884982 0  0.3128688392940203 0.07260997451790079 0  0.550724900485678 0.9253360991633187 0  0.7142608810459105 0.2384904702214873 0  0.7045869185243887 0.1871826897887429 0  0.890625 0.734375 0  0.953125 0.765625 0  0.2111812642821677 0.8286209446459138 0  0.9590293078204457 0.09375 0  0.953431269039847 0.1435719386408004 0  0.04097069217955424 0.90625 0  0.04656873096015299 0.8564280613591996 0  0.1078743037981226 0.8541621766048062 0  0.8921256962018773 0.1458378233951939 0  0.8521576979194619 0.1084496634207678 0  0.8655663982740958 0.05464346096571447 0  0.04005659640905543 0.09375 0  0.1001448316533417 0.0424677624422826
[...]
<PointData  Scalars="f_76639"> 
<DataArray  type="Float64"  Name="f_76639"  format="ascii">9.3720948047068342e-01  9.3720948047068364e-01  9.3720948047068342e-01  9.3720948047068320e-01  9.3720948047068386e-01  9.3720948047068409e-01  9.3720948047068409e-01  9.3720948047068386e-01  9.3328334429101523e-01  1.9372094804706836e+00  1.9372094804706836e+00  1.9372094804706836e+00  -6.2790519529316385e-02  1.9372094804706836e+00  -6.2790519529316385e-02  -6.2790519529316385e-02  -6.2790519529316385e-02  9.3467267213049432e-01  9.3468687248487525e-01  2.2753383677026190e-01  1.6414987402254870e+00  -5.0072136016531613e-02  1.9028245118270424e+00  1.6431382372808192e+00  2.2874117773664929e-01  1.9352132696875959e+00  -6.4661316406195990e-02  1.9349278481328958e+00  -6.0732429985411181e-02  9.3625391660005297e-01  9.3624029141526044e-01  1.7000070669101002e+00  1.0329227897423734e+00  7.9814643081916981e-01  1.2048824594341506e-01  5.6117634446715281e-01  5.7279425486196661e-02  -1.6434817703984125e-02  1.8907102818972124e+00  5.5323936419837105e-01  6.4381945154422338e-01  1.6386619851284960e+00  1.6443162616572311e+00  1.6443162616572311e+00  2.3010269928413515e-01  2.3010269928413515e-01  3.2307589663415032e-01  3.3812200449177543e-01  1.2562727652758205e+00  2.3010269928413615e-01  1.6443162616572311e+00  1.6443162616572311e+00  2.3010269928413593e-01  1.6443162616572311e+00  2.3010269928413615e-01  1.6443162616572320e+00  1.6443162616572320e+00  1.6443162616572311e+00  2.3010269928413593e-01  2.3010269928413571e-01  2.3010269928413571e-01  1.4283340002774847e+00  1.7766087900079626e+00  1.4639204264325265e+00  1.6007197784510367e+00  3.1801342016382578e-01  6.0506227868831725e-02  1.7491883528539733e+00  1.4873184287504875e+00  1.7446044478760303e+00  9.2582550262205254e-01  2.5109514170806474e-01  -6.0001962842498195e-02  1.9278247591861146e+00  1.9030612144347343e+00  8.7744125856843225e-01  1.2522467650971736e-02  -4.4241113362061671e-02  1.2022346186302232e-01  1.5246998298971301e-01  1.8460013777409388e+00  5.8034321520941394e-02  1.9176115797867930e+00  9.8367435887586552e-01  6.9354190509208991e-01  2.6710529947088935e-01  9.3867037791888219e-01  1.6063550409369485e+00  9.3508373067396722e-01  2.6715459204266706e-01  1.1047359600522839e+00  1.8669526794883187e+00  8.3705657423074376e-01  1.6566171951676265e+00  1.6568068144878756e+00  1.1690421638832695e+00  2.1648895497153453e-01  9.5307799815801097e-01  1.9119884482840166e+00  1.6355106023454287e+00  1.8616883406993390e+00  1.4943863839563363e+00  1.6230408368979232e+00  1.5040183064916455e+00  2.5052398493747485e-01  1.5511184109479510e+00  1.8610890129819704e+00  3.3153355038100429e-01  1.2765683905032474e+00  1.3329947959397209e-02  1.7884886087107485e-01  1.3198929128357735e+00  1.0393843359832484e+00  5.9337051461058311e-02  8.7697589023407810e-03  -6.1494275638057712e-02  3.0659373465945244e-01  1.9294383561111177e+00  6.1351947227274706e-01  1.9189843339779953e+00  -4.2558351210104484e-02  1.9331782839980660e+00  1.3329947959396876e-02  5.2682781452192085e-01  -4.4501282925659483e-02  5.5452604810559303e-01  9.2736358503861649e-01  5.5452604810559381e-01  7.9005674372351520e-01  -4.3602795647136282e-02  8.0229240487474518e-01  1.8580252351077582e+00  5.3680565498011268e-01  1.0267969298439409e-02  -5.8075772607034483e-02  1.9183523376262861e+00  1.8536976345254983e+00  1.6237605607859684e+00  1.5445556771011606e+00  -3.4026423326904837e-02  1.3085368512078943e+00  2.1173905205059337e-01  1.3198929128357735e+00  7.2571421176476036e-01  1.0496879284080100e-01  5.5145843817588913e-01  5.5452604810559303e-01  3.3731217495113336e-01  1.5466049865000420e-01  1.4885056276055217e+00  5.2001712589491134e-01  1.9208759934924087e+00  1.8610890129819704e+00  -6.3529053867141583e-02  -2.8303515250539625e-02  1.0406975097449249e+00  1.7415470338172778e+00  3.8698142897249693e-01  1.3329947959397098e-02  1.8841817680251705e+00  -4.4096338348746017e-02  1.6185835018503041e+00  1.9179056516431348e+00  5.5452604810559325e-01  1.3198929128357737e+00  1.3198929128357737e+00  5.5452604810559325e-01  5.5416065800663561e-01  5.9378193592032569e-01  5.9552512270293616e-02  1.8192702687236297e+00  1.4055772257900387e+00  1.3853863888026106e+00  1.3198929128357735e+00  1.3198929128357735e+00  3.2702118487606990e-01  3.5678606677097807e-01  4.4171824663376452e-01  1.3959135959966079e-01  4.3684228433111209e-03  1.8971446989776242e+00  1.4222862417577640e+00  1.3188752343793289e+00  1.3195515980634815e+00  1.8610890129819704e+00  1.8610890129819702e+00  5.5452604810559381e-01  1.3198929128357741e+00  1.8610890129819704e+00  1.3198929128357741e+00  1.3329947959396987e-02  1.8610890129819702e+00  5.5452604810559403e-01  1.8610890129819704e+00  1.8610890129819704e+00  5.5452604810559403e-01  1.3329947959397098e-02  1.3329947959396987e-02  1.3329947959397209e-02  1.3329947959396876e-02  1.1627361330778350e+00  1.7397578173310488e-02  2.1606595017273164e-01  1.9306000229765072e+00  5.5715001528070196e-01  3.1162387580389646e-02  5.5924718745846935e-01  1.7989757731512996e+00  1.8987430738949138e+00  1.8760360798907281e+00  1.6977947611553912e+00  1.7226281010091167e+00  1.5171970666878107e+00  1.7585928269321804e+00  1.0839114072411258e+00  1.1943192445754329e+00  1.1005467391279662e+00  1.5226492362981576e+00  3.0892502620347134e-02  4.0786589610555042e-02  1.2354739735917617e+00  1.8367407357283239e+00  1.4384319297151331e+00  1.8603533181857952e+00  1.0943022836053058e+00  7.9072932647918348e-01  1.1692032530572785e+00  -5.4659497861407745e-02  1.0310961109368211e+00  1.4126366853889309e+00  4.6607298149839482e-01  -4.1047496226399680e-02  5.0244376088786021e-02  1.8404721995179247e+00  1.6386195633491034e+00  1.8185215177836509e+00  1.1475367990694301e+00  1.6224215182984544e-01  5.0290836053884580e-01  1.0297397145446745e+00  1.8882153028888680e+00  1.8592509126982872e+00  -3.9276280684714018e-02  1.4099395698535659e+00  4.6125018720554645e-01  7.5184081788900536e-01  1.5847110963940048e+00  1.5895482215232359e-01  1.8844464210082013e+00  -4.9411899482654328e-02  4.8271545197640514e-02  1.1536426059293956e+00  7.2113923985760464e-01  2.5934210446302980e-01  1.1590851442191843e+00  1.8098255910670449e+00  1.8837168756299545e+00  1.0156778871405887e+00  1.8939284620851313e+00  1.5162354619481342e+00  1.7417059186336397e+00  1.4800671486184902e+00  3.7750934622944493e-01  -1.9151520898750541e-02  5.1503776411345092e-01  1.4408289234235291e-01  5.3318951333231376e-02  -5.0529245437473148e-02  1.1986641211539193e+00  1.4246319846980808e+00  1.9023057755977009e+00  1.7990739943191982e+00  1.9352076399928633e+00  1.7062378961889741e+00  1.8340656109503901e+00  1.9289450644824104e+00  1.8991104135133754e+00  4.9161840513694416e-01  5.4602299581655789e-01  6.0485261361306324e-02  -6.3843333641112526e-02  1.5955953035216075e+00  1.0860588391475805e+00  6.4256382533641443e-01  3.0663512330817694e-01  2.2912435524167990e-01  -4.4088692710596566e-02  1.1834152793540764e+00  1.2626607079318553e+00  1.5095079587750917e+00  6.1145283719307164e-01  3.6447774932467492e-01  7.0036702710633036e-01  1.1729101543199176e+00  6.9153816870525819e-01  4.5625749219611272e-01  1.6822487806228152e+00  1.7179365019813653e+00  8.4046477101168138e-01  1.2033282823422933e+00  1.8685528320215044e+00  1.4781357278219940e+00  -4.9772257933785945e-02  3.2009521843318456e-02  2.9852236927507453e-01  1.5423920101520136e-01  4.1425875879586321e-01  1.9338625249830561e+00  -6.4999531595966969e-02  1.9255152592004419e+00  1.8561740618334337e+00  2.0825343563259071e-02  2.1607577237803134e-02  1.9361245893731989e+00  9.9840176587344953e-02  6.9029311705617757e-01  1.2281768529759465e+00  5.6807561506920623e-01  8.5840803831891521e-01  6.3429434975446300e-02  1.7908695551891438e+00  2.9776446085135977e-01  7.0957315874555826e-01  1.5105958313751202e+00  1.0662083675253682e+00  1.6910394367028581e+00  1.6301103286863101e+00  1.8688504665335290e+00  1.7579631424534783e+00  6.9016999881799523e-01  1.7625762853238911e+00  1.8554367494329433e+00  -2.4425722410453255e-02  -6.5659260824055835e-02  7.5927110823768573e-01  5.1380453953078642e-01  1.7380554641240376e+00  7.2627271636270407e-01  1.7138924053675602e+00  1.8480382755323963e+00  1.3279625513998765e+00  1.0191071891448284e-02  5.4583346322013016e-01  5.6186618587545867e-01  1.3581238658171990e+00  -5.5158102382227854e-02  6.9486795303708247e-03  8.2824014106424659e-01  2.6644655389176108e-01  -6.2861072909350987e-02  2.3588311042124574e-01  1.2026472852283094e+00  1.1431558834331363e+00  1.9367952596778648e+00  2.2861164905196982e-01  1.5519424682559440e+00  1.8097943775271570e+00  1.3883358227207685e+00  1.2736973428503684e-02  9.3617258201418707e-01  9.3699213641063317e-01  1.3365903653433255e+00  9.3707098311383874e-01  9.3715971747342686e-01  5.3689630899603735e-01  1.4485913523517890e+00  1.5334512364108936e+00  -4.1241235261433785e-02  1.2507339984350826e-02  7.3695135666529032e-01  1.3219771505013289e+00  2.3420779541549797e-01  -4.4523577440804200e-02  1.9324422138971737e+00  1.6741874939818518e-01  1.9350601349631522e+00  1.2794825108770230e-01  5.6190362709018382e-01  2.6735052204267573e-01  1.6153911482946406e-01  1.4084613935509202e-01  -6.5642149105710174e-02  1.4826936830491755e+00  1.9230636970046808e+00  1.7148078810789489e+00  1.3156437266373533e+00  1.9005012492525264e+00  7.3184041421779367e-01  1.0464149131368536e+00  -5.1860529794435041e-02  -6.2440142258898476e-02  -2.3432264809095403e-02  1.9251934665959103e+00  1.1728932586091756e+00  -6.2850164672240041e-02  8.7748922424522230e-02  1.7163155188837547e+00  3.6229153305655537e-01  1.9366776016708713e+00  1.3527529428302836e+00  1.9041902788411369e+00  1.9335508992389314e+00  1.6440144366891252e+00  1.8296230632913550e+00  4.4495055257316340e-01  1.9533306190042601e-01  5.7100829511719386e-01  7.4211915845455489e-01  2.3335217891592977e-01  -8.3896916177118568e-03  1.2356187113451755e+00  1.9341054911497253e+00  1.2621121622587874e+00  2.9546982231434671e-01  7.5816867011505529e-02  1.9179947608739141e+00  1.6945339769534242e+00  7.4278087119234604e-01  6.0086186389566587e-01  1.9094609110714098e+00  -2.6401247660137232e-02  2.0925261757626854e-02  1.0721292426793985e+00  8.1182334569561276e-01  9.9585845538994050e-02  -5.4408650747329965e-02  8.5816955615171497e-01  1.7389196017420523e+00  1.6695194416585342e+00  4.6772236028255887e-01  9.3482146930842291e-01  1.9179947608739141e+00  1.2820479477150841e+00  1.3456731724657740e+00  1.9037201209622250e+00  1.8453744241158134e+00  2.8841419460316881e-01  1.4882910964713565e+00  3.4670471999602376e-01  1.8032061082914814e+00  1.7287524185682417e+00  -5.3835522634555343e-02  -6.0278969909546426e-02  3.4569501336153642e-02  9.3373049995316329e-02  2.6150295229169923e-01  1.1064849191194447e-01  1.8361712260082663e+00  5.8950849130395354e-02  9.5467400234746269e-01  3.8163924745108146e-01  1.7178219460810631e+00  1.0181506760126873e+00  1.1324019703822765e+00  4.7094584297309672e-01  -6.2189958722122934e-02  1.9321757841356637e+00  1.4927797134902858e+00  1.1961428734492150e+00  8.6606495182555499e-01  1.7117700714706381e+00  2.2589684719056685e-01  2.8226748710849608e-01  -4.1124600697413576e-02  1.9202292584244167e+00  5.8283731830794916e-01  1.0573986816813816e-01  1.9873253942361241e-01  1.0902941381604959e-02  1.5187753259773978e-01  4.8540195300995137e-01  1.1171011294394777e+00  5.0018843617837572e-01  2.4489013808163641e-02  1.9282812661335142e+00  1.9340395478805781e+00  1.8001491596407486e+00  1.9346768000933647e+00  1.7686790927732290e+00  -5.2413558351972957e-02  -1.9832028876429431e-02  1.6972292493650956e+00  -1.5416418165636173e-02  1.0573986816813849e-01  -6.4335339152019846e-02  8.1788616668692038e-01  -5.4668978424967610e-02  1.6369970949449659e+00  1.4823139998320876e+00  2.6523773494593489e-01  8.6121429871417532e-01  1.0537815472025296e+00  8.4097551542904891e-01  1.7686790927732292e+00  7.4827228449789362e-01  1.9342216153866445e+00  3.4864814090995366e-01  7.7824789180163820e-02  4.3593795219575342e-02  1.1822116907147699e+00  1.4542394061938457e+00  5.5895733998363850e-01  1.7686790927732290e+00  1.9179947608739141e+00  1.8065917157182003e+00  1.6262518280703631e+00  1.4024376551813307e+00  -1.1042723337879843e-03  2.4184049162969770e-01  1.5298319014936796e+00  -5.6951238633613864e-02  6.6331070230514444e-01  1.6362248386834750e+00  3.2548511298771116e-01  1.9343180959552408e+00  -4.3575799932546705e-02  8.6620740966406995e-01  1.7061322949987663e+00  1.8235982065985292e+00  1.0483879435704266e+00  1.3376323879215959e+00  1.0213339047984122e+00  1.9305501812902730e+00  1.8474427139932843e+00  1.3986366676453965e+00  1.7334324977841116e+00  1.7233836197204317e+00  1.3903173435523484e+00  7.7367364319139864e-01  1.1833739697867143e-01  4.5767258039494674e-01  1.4490590140352599e+00  7.9852985760829320e-01  5.4807107784778505e-03  1.2981188601861000e+00  1.9179947608739143e+00  1.8870051459681507e+00  1.6870120029626914e+00  1.7599721244658426e+00  1.3619726474576160e-02  -2.0003746993560261e-02  5.4350159147615859e-02  1.0452041516442949e-01  1.1322998024868118e+00  1.8748242160697102e+00  5.5707643141616414e-01  3.3511192964189723e-01  1.2741761486644758e+00  1.2790511543017621e-01  5.6389472286875175e-01  8.2881257411654541e-01  6.7811474693599050e-01  1.8296760099916753e+00  5.5929239354909711e-02  -5.7335298008780310e-02  3.2453333377662880e-01  6.7327053749534860e-01  1.2306186578391374e+00  6.4299790933574719e-01  1.8022585701361331e+00  1.5278239459049834e+00  7.2638823068181457e-01  1.1038216639360847e+00  1.8259734301702160e+00  1.8235603153754096e+00  1.9247998132411759e+00  1.9296852061417766e+00  1.8573703032726072e+00  1.0372383830248246e+00  1.8008190971209186e+00  1.7686790927732290e+00  1.1697677650445635e+00  1.9324400306876501e+00  9.0464887055688736e-01  4.9884068582649188e-01  2.9760571252138168e-01  1.4278824315444905e+00  2.9829199550791607e-01  1.9132791961841726e+00  1.4565595919238636e-01  -3.2664097589635448e-02  1.3657968274529677e+00  3.2924945784349346e-02  1.8595817253237357e+00  1.5422986258175893e+00  1.8207763877666410e+00  1.3233017399635083e+00  4.8568292260138651e-01  -4.3575799932547038e-02  1.7980128951617602e+00  1.1911945178221102e+00  8.8183735642167571e-01  -7.8154069541131691e-03  1.7269697982263490e+00  1.3028698473024261e-01  4.7859934048367275e-01  2.1947757179221875e-01  1.1564520474261542e+00  1.5707126401200353e+00  1.8502652548993684e-01  1.8829126219861143e+00  1.9134111087716266e+00  1.6460317293084064e+00  1.5160872850527820e+00  1.4927797134902858e+00  1.4254625371625753e+00  6.9694646534589599e-01  -3.4786187910767562e-02  9.7902273138832407e-01  1.8423110619917482e+00  1.4021704138479565e+00  1.5554820063232198e+00  1.4927797134902858e+00  1.5468155849901242e+00  1.5425664527810984e-01  -5.9181280881389874e-02  5.3991661031377328e-02  -4.9868918529421595e-02  5.8618184514805127e-01  3.2355427487955923e-01  1.5019440244836766e+00  1.3516530395821369e+00  1.1322998024868118e+00  1.1322998024868118e+00  2.3947682703730980e-01  7.4211915845455523e-01  5.0472951550752404e-02  1.6924524103236520e+00  1.7686790927732290e+00  1.0573986816813816e-01  6.5375643819409890e-01  4.4211972017401241e-01  6.2562277875457029e-01  -6.3218741404844833e-02  1.0199788999259131e-01  1.6963905313122001e+00  1.2218686665433596e+00  -4.3575799932547038e-02  1.7886547244424305e+00  1.8581725823687620e+00  1.1050092974720347e+00  1.8875704155368618e+00  4.3017665379994657e-01  -3.6796812624710712e-02  -5.1797971620345461e-02  1.9342149760586653e+00  1.4168280418307906e+00  1.7237644812755033e+00  1.8944279456459177e+00  1.6234492592814136e+00  1.1989938293589630e+00  2.4695509905249796e-01  -6.1102579001014005e-02  1.9335601538851728e+00  9.5813999134047256e-01  1.1396870883019148e+00  1.1242203962973316e+00  4.4667944272650323e-01  1.4266753777271790e+00  7.2310549775787525e-01  7.4172122279978592e-01  3.8127368846333543e-01  1.1322998024868123e+00  3.8163924745108124e-01  3.8163924745108191e-01  1.0573986816813805e-01  7.4211915845455489e-01  1.1322998024868118e+00  7.4211915845455634e-01  1.0573986816813838e-01  1.9179947608739143e+00  1.0573986816813849e-01  -4.3575799932546705e-02  1.0573986816813838e-01  1.1322998024868116e+00  7.4211915845455634e-01  3.8163924745108191e-01  1.4927797134902858e+00  1.1322998024868123e+00  7.4211915845455523e-01  1.9179947608739141e+00  1.7686790927732290e+00  -4.3575799932546816e-02  -4.3575799932546816e-02  1.4927797134902854e+00  1.4927797134902858e+00  3.8163924745108146e-01  1.4927797134902854e+00  1.9179947608739141e+00  3.8163924745108169e-01  1.4927797134902858e+00  1.7686790927732290e+00  -4.3575799932546927e-02  1.1322998024868116e+00  3.8163924745108124e-01  7.4211915845455556e-01  7.4211915845455556e-01  3.8163924745108169e-01  1.9179947608739141e+00  1.7686790927732292e+00  -4.3575799932546927e-02  1.0573986816813805e-01  1.2696550983504897e+00  1.6174307086219035e+00  1.2660958126258468e+00  1.9088050127638674e+00  8.5526344483590963e-02  1.1434137259255912e+00  9.5916922360100010e-01  1.0144564527002151e+00  1.4148213707817896e+00  3.1921239952879793e-01  1.8855745450703767e+00  1.9328842301757687e+00  6.6029521821359605e-01  1.0379984114179985e-01  -5.6351496334474963e-02  1.1744530769568129e-01  3.7324589862234453e-01  1.7810203204381303e+00  1.9119554866221209e+00  1.7444594567935445e+00  1.4502258928137599e+00  1.6781028831354268e+00  7.0017297722991689e-01  7.5784739464944550e-01  -2.8120728939236363e-02  2.9657389096161801e-01  8.1493621418745199e-01  1.7414441240134435e+00  1.9316007627653340e+00  -5.1059060630563355e-02  1.8048858342278096e+00  -3.8462013769972180e-02  2.4115048686849126e-02  1.6673963265375988e+00  4.8449621461888126e-01  1.8110096064752130e+00  4.7013184423068188e-01  1.3133497364357023e+00  1.9021259030616291e+00  1.8380669067449218e+00  4.7690285962589529e-01  1.5519318779441997e+00  3.1298966589810351e-01  1.3478159842274626e+00  1.9255530667671374e+00  6.0362421132227506e-01  4.0563193093119765e-01  6.5892504671317320e-01  1.8299469279193314e+00  1.7541511290664622e+00  1.5191806157991430e+00  1.7047490431139891e+00  3.9360061397937479e-01  1.8731425689581340e+00  4.2347989447525142e-01  3.4040820370170943e-01  4.4305028708590072e-01  8.1665567934955985e-01  9.2803389950200887e-01  1.2412275762360778e+00  9.1062714293737346e-01  8.2273814780822785e-01  6.1848083881891092e-01  1.9344750192679565e+00  -4.8599441339312516e-02  6.6629492728002379e-02  1.4987519566323809e-01  1.9196235116610378e+00  1.1942825277778556e-01  1.8309227561549661e+00  1.7391200284582251e+00  1.5400762983516438e+00  1.5702557981994201e+00  1.1932268716898347e+00  1.2570015331011333e+00  5.5153867982219373e-01  1.8943441741121025e+00  2.9794641894558860e-01  8.0388888180204554e-01  1.3024126915581999e+00  1.8877072827791381e+00  1.5265912563188180e+00  1.5041264882045985e-01  4.8738829551862928e-01  1.8483478092619274e+00  1.0204345042845930e+00  1.6336813442158467e+00  1.6539432321686984e-01  2.0023327790233592e-01  1.8787232917718519e+00  3.9856258243016718e-01  4.6669191685719635e-01  9.4146792416150160e-01  1.8000541298511941e-01  1.1197791773317009e-01  9.2191453207906018e-02  1.0293336333944533e-01  -6.1272162295272485e-02  1.6773775917640186e+00  1.4453254086344591e+00  -6.3940606222331248e-02  1.8824274203027522e+00  1.2668003616464416e+00  8.0070268610146722e-01  1.3642522491144204e-02  8.3361113761838135e-01  1.5356915229864689e+00  -6.4772998438348758e-02  -1.5417407199198471e-02  1.8264505229338432e+00  1.7461282241468994e+00  1.9052983409300162e+00  6.9571788858474937e-01  9.4512047572309033e-01  9.4156946582269596e-01  1.6109339683489403e+00  8.0244841666828104e-01  1.3177985419514309e+00  6.0461598835525632e-01  1.4061586186227280e+00  -3.2716112896072985e-02  1.5221521606517803e+00  1.8022674149800073e+00  3.4440729212243150e-02  8.