<?xml version="1.0"?>
<VTKFile type="UnstructuredGrid"  version="0.1"  >
<UnstructuredGrid>
<Piece  NumberOfPoints="15681" NumberOfCells="30848">
<Points>
<DataArray  type="Float64"  NumberOfComponents="3"  format="ascii">0 1 0  0 0 0  1 0 0  1 1 0  0.5 0 0  1 0.5 0  0.5 1 0  0 0.5 0  0.5 0.5 0  0 0.25 0  0.25 0 0  0.25 1 0  0 0.75 0  1 0.25 0  0.75 0 0  1 0.75 0  0.75 1 0  0.7083333333333333 0.2916666666666667 0  0.2916666666666666 0.7083333333333334 0  0.375 0.25 0  0.75 0.625 0  0.2569444444444444 0.4652777777777778 0  0.5366379310344828 0.7535919540229885 0  0.1875 0.1875 0  0.8125 0.8125 0  0.869047619047619 0.375 0  0.1450441919191919 0.6052714646464646 0  0.375 0.8690476190476191 0  0.5526960784313725 0.1825980392156862 0  0.8385416666666666 0.1614583333333334 0  0.1614583333333333 0.8385416666666667 0  0.6736111111111112 0.4652777777777778 0  0.1367521367521368 0.3477564102564102 0  0.6570970491253563 0.8648656830417855 0  0.5102479397556124 0.3386260301221938 0  0.3654513888888889 0.5737847222222222 0  0.6929750044954185 0.1362784921584263 0  0.388576102743835 0.411911725237599 0  0.6091269841269842 0.5942460317460317 0  0.875 0.6875 0  0.427278890279516 0.119889445139758 0  0.8544456845238095 0.5213913690476191 0  0.125 0 0  0 0.125 0  1 0.875 0  0.875 1 0  0.1280008648150532 0.4769292340226777 0  0.2695382451711197 0.3321750950221553 0  0.7031567235715964 0.7447810921428012 0  0.625 0 0  0.375 0 0  0.125 1 0  0.875 0 0  0 0.375 0  0 0.625 0  1 0.375 0  0.375 1 0  1 0.125 0  0 0.875 0  0.625 1 0  1 0.625 0  0.2979288363930608 0.1201429454643536 0  0.410919540229885 0.7484605911330049 0  0.5325041980395562 0.878905151526474 0  0.4831670727569156 0.6331060043826487 0  0.1735997378973042 0.7204747378973043 0  0.2534919507575758 0.5772372159090909 0  0.2633928571428572 0.8876488095238095 0  0.8199404761904761 0.2730654761904762 0  0.75830270586982 0.3919383189517417 0  0.5750282248382511 0.4237522353023667 0  0.6008360210023379 0.2794828358598495 0  0.08163442644334186 0.6821295860397322 0  0.08333333333333333 0.1875 0  0.2028380815996574 0.08844602719988583 0  0.2766521142611967 0.2325436572164097 0  0.90625 0.78125 0  0.890625 0.890625 0  0.7545696325008384 0.8973565441669461 0  0.5625 0.08086590340834317 0  0.09077380952380953 0.09077380952380952 0  0.4610923478694773 0.209034015149656 0  0.7542527598351648 0.5248380520595106 0  0.6459235536037465 0.3619913988405765 0  0.7560381768882634 0.20506142233852 0  0.07073252688172042 0.8125 0  0.0924753097241701 0.9078102849914793 0  0.9292674731182795 0.1875 0  0.9075246902758297 0.09218971500852073 0  0.8125 0.07073252688172045 0  0.2400955776842301 0.7869705776842302 0  0.9121050213379069 0.2781978201831695 0  0.7916878157143976 0.7239689078571988 0  0.9345238095238094 0.4375 0  0.4375 0.9345238095238095 0  0.3725616989755203 0.6651895248862173 0  0.06536271996350887 0.5625 0  0.9348362560379583 0.5625 0  0.456646798987055 0.8277247094351965 0  0.1875 0.9355758238725954 0  0.6169761231634859 0.6939779188977889 0  0.6226854751147515 0.7827911461419014 0  0.3305695598137626 0.7901697871282585 0  0.5865305325818898 0.5101085479043448 0  0.6622701297028378 0.2177663989757395 0  0.1354166666666667 0.2591702279202279 0  0 0.3125 0  0.2094429575680048 0.3936361846162499 0  0.836666296419157 0.607917407161686 0  0.6875 1 0  0.214261555450504 0.6492551722020035 0  0 0.4375 0  0.07731537126068377 0.40625 0  0.3427725432967068 0.4879566233699599 0  0.3550792513951871 0.3331953632609953 0  0.4462473953896857 0.2887834789342508 0  0.4747801464819794 0.417386052030127 0  0.8229836475148948 0.4443292349237342 0  0.7322605135514757 0.8199240278289671 0  0.6756431877205955 0.5468989748126787 0  0.1968419507215863 0.5194573482612496 0  0.3285590277777778 0.9345238095238095 0  0.8125 1 0  0.4198917601920009 0.5134893045331258 0  0.5232405503206691 0.2595791787880157 0  1 0.9375 0  0.1987510870015086 0.3025185951894431 0  0.5625 1 0  0.6005390654136388 0.9228110509230952 0  0.6411254848194414 0.07704872765442942 0  0.3357233162523242 0.1855113224530532 0  0.6730653396610877 0.6393887462324165 0  0.310966987234063 0.6240019765311626 0  0.7368737836204349 0.07457755202327881 0  0.6192316414418171 0.1485238406378594 0  0.5432429670607106 0.678552703844006 0  0.4754371679695679 0.7103946803120881 0  0.07501324890749672 0.3043839897335739 0  0.5358146975860403 0.5688321463205916 0  0.3115271739500156 0.3982137365971444 0  0.3625191397122174 0.0767854603650549 0  0.5024029442563831 0.1264128223758444 0  0.4375 0 0  0.4699946908887376 0.06379961173775725 0  0.9375 0.71875 0  0.9272105898044465 0.635671179608893 0  0.9375 1 0  0.6690971819568612 0.9331530898202766 0  0.1073454944778885 0.7499206387638554 0  0.8699082999280406 0.2232403652524313 0  0.5773118091863964 0.3548027349159383 0  0.1354166666666667 0.1428571428571428 0  0.3125 0 0  0.8241684193077341 0.9257452995055244 0  0.4352314948354036 0.3586940847489378 0  0.4351301473778832 0.5819726043539077 0  0.8073232928518163 0.3419398170341962 0  0.7775949246947366 0.1298519409204575 0  0.6875 0 0  0.7413513991851041 0.457933324954483 0  0.939453125 0.841796875 0  0.5630355154606987 0.8171875156478349 0  0.9345238095238095 0.3461466592368577 0  0.9375 0 0  1 0.0625 0  0.0625 1 0  0 0.9375 0  0.06552178593177167 0.4969053669623468 0  0.1424866619031703 0.4130277709291224 0  0.1275287182444726 0.5422946908002588 0  0.2637686595586339 0.06413888464529549 0  0.2524263535491086 0.1697437503243817 0  0.7367218397988525 0.6888573970660841 0  0.0625 0 0  0 0.0625 0  0.8463594539285995 0.7578283617857982 0  0.3128751192101563 0.2851997374369947 0  0.4015281788351144 0.1806421385113692 0  0.1910251795116588 0.4553332197174453 0  0.287797471442006 0.5222621440543902 0  0.3962628745986055 0.8097380085535307 0  0.3505895299554843 0.7304878890838692 0  0.5019151500495276 0.9356042615328103 0  0.9374389419410134 0.4999931039076005 0  0.3125 1 0  0.1875 1 0  1 0.5625 0  0.4375 1 0  1 0.3125 0  1 0.4375 0  0.8125 0 0  1 0.1875 0  0.5625 0 0  0.1875 0 0  0 0.1875 0  0 0.5625 0  0 0.6875 0  0 0.8125 0  1 0.6875 0  1 0.8125 0  0.8021696218581627 0.6612893947866073 0  0.06154922295426143 0.6239401126946708 0  0.9359375 0.9359375 0  0.4666158024849896 0.7691515918155014 0  0.2318201265217025 0.7064974250277525 0  0.1565954253579966 0.6635489312486841 0  0.1598132503680848 0.7787147500325552 0  0.3146529991605639 0.8510876378205265 0  0.1461873209418733 0.05982804528877814 0  0.06109554988524315 0.2446551776247686 0  0.8054950308560754 0.5564226538848541 0  0.470541749491976 0.8853316336952531 0  0.6948472567465137 0.4042308563372457 0  0.8802828472348889 0.4658893256343853 0  0.6788075634946739 0.7974194205806069 0  0.2155048659603867 0.2428201584940968 0  0.8131223143423806 0.2132171049028394 0  0.4330798005432235 0.6671274900735726 0  0.6015279126162613 0.2187368078743274 0  0.8061636571464289 0.8703766630361714 0  0.7008230445061776 0.3478568388444072 0  0.8638466246958771 0.3147095987735538 0  0.204801534004265 0.8789209409594009 0  0.2449006736431132 0.9424182882803838 0  0.7611268409371427 0.2643056884799992 0  0.7552800864046191 0.7678006649959446 0  0.5983639638906616 0.864113435029236 0  0.1956559506814437 0.577281203577426 0  0.3527670268164207 0.1320469097565204 0  0.7530364577483248 0.3262386077083089 0  0.4535919187979363 0.4690107087451527 0  0.8824869791666666 0.8336588541666666 0  0.8814453125 0.9451171875 0  0.5582987942628019 0.622421666543858 0  0.6817532446064828 0.6939001801354731 0  0.3830295138888889 0.9450968952922078 0  0.4140603937012541 0.05211333372716105 0  0.5535864501303013 0.3060591985391672 0  0.6560130086346878 0.2729726562211558 0  0.890203140221684 0.5948314305427268 0  0.7043857725999024 0.593980890020804 0  0.5105843922695152 0.8016828014338627 0  0.05365910753708378 0.7315110031682004 0  0.616904573672261 0.4621186633436136 0  0.5338511646455415 0.387875898899613 0  0.5231769258947843 0.4477682463140762 0  0.650302973237622 0.7370722302085519 0  0.3927483139621257 0.4662414504529014 0  0.8034595960585199 0.4972538342758211 0  0.7738337841682438 0.9496376207663251 0  0.7193737507158268 0.954685447650112 0  0.482525916480686 0.5528257169991676 0  0.2533501157346781 0.2809495420003238 0  0.3118487924482243 0.5702930126570319 0  0.6257598847669529 0.4104163315430518 0  0.1354166666666667 0.1955605158730158 0  0.04166666666666666 0.15625 0  0.3956448985530264 0.6174149462065157 0  0.8102897701818546 0.3938784238208349 0  0.2641154190013625 0.8344469561943118 0  0.642852220770013 0.5068794586563659 0  0.05271458179508221 0.355846947336007 0  0.7021551360070266 0.8921457280225779 0  0.5692125776683765 0.1328512638850284 0  0.5206162811937602 0.04865158770992991 0  0.6001838442201555 0.04540556991297563 0  0.2597716608242787 0.4118346398477178 0  0.4040584599473195 0.3179589136784675 0  0.1480337679295207 0.8941560631483065 0  0.1344356707112281 0.9466251177415842 0  0.7114696411829317 0.4983917389078826 0  0.7585704698442475 0.5751926345944629 0  0.2189131956390871 0.04022068508159698 0  0.2476935455192043 0.1123642267635843 0  0.185995005654517 0.1365524537205238 0  0.6223414373308711 0.643380839165121 0  0.5732602596637543 0.7190051747306219 0  0.268358222364537 0.6586246524467934 0  0.3265879848129173 0.2369791782191225 0  0.1267095595787346 0.7034787238999181 0  0.1115202922226038 0.6421997933884982 0  0.3128688392940203 0.07260997451790079 0  0.550724900485678 0.9253360991633187 0  0.7142608810459105 0.2384904702214873 0  0.7045869185243887 0.1871826897887429 0  0.890625 0.734375 0  0.953125 0.765625 0  0.2111812642821677 0.8286209446459138 0  0.9590293078204457 0.09375 0  0.953431269039847 0.1435719386408004 0  0.04097069217955424 0.90625 0  0.04656873096015299 0.8564280613591996 0  0.1078743037981226 0.8541621766048062 0  0.8921256962018773 0.1458378233951939 0  0.8521576979194619 0.1084496634207678 0  0.8655663982740958 0.05464346096571447 0  0.04005659640905543 0.09375 0  0.1001448316533417 0.0424677624422826
[...]
<PointData  Scalars="f_76639"> 
<DataArray  type="Float64"  Name="f_76639"  format="ascii">9.5172947533980312e-02  9.5172947533980534e-02  9.5172947533980312e-02  9.5172947533980090e-02  9.5172947533980756e-02  9.5172947533980978e-02  9.5172947533980978e-02  9.5172947533980756e-02  1.0473317983358177e-01  1.0951729475339804e+00  1.0951729475339804e+00  1.0951729475339804e+00  -9.0482705246601947e-01  1.0951729475339804e+00  -9.0482705246601947e-01  -9.0482705246601947e-01  -9.0482705246601947e-01  1.0245265112910440e-01  1.0246704001973919e-01  -6.0449419815932215e-01  8.0947770288834531e-01  -8.8145041410881886e-01  1.0711897094869332e+00  8.0697849305892333e-01  -6.0741333001889908e-01  1.0995414004285398e+00  -8.9970841215556019e-01  1.0992559713192078e+00  -8.9426700512137158e-01  9.9030439525153294e-02  9.9017255345617311e-02  8.7002653981776412e-01  1.9731123834626829e-01  -3.7549488770541893e-02  -7.0926040120554890e-01  -2.6842342103798739e-01  -7.7864519833139456e-01  -8.4588049101964480e-01  1.0612439842254271e+00  -2.8304187206048692e-01  -1.9210629450306591e-01  8.0386111495842094e-01  8.0227972872052800e-01  8.0227972872052800e-01  -6.1193383365256793e-01  -6.1193383365256793e-01  -5.1242778212424211e-01  -4.9392457272116774e-01  4.2346730620306899e-01  -6.1193383365256693e-01  8.0227972872052800e-01  8.0227972872052800e-01  -6.1193383365256715e-01  8.0227972872052800e-01  -6.1193383365256693e-01  8.0227972872052888e-01  8.0227972872052888e-01  8.0227972872052800e-01  -6.1193383365256715e-01  -6.1193383365256737e-01  -6.1193383365256737e-01  5.9175961090079698e-01  9.4488138565658208e-01  6.2812444771798537e-01  7.7135387958364943e-01  -5.1701239594123916e-01  -7.7111232033237920e-01  9.1204649803727178e-01  6.5239258346784534e-01  9.1251362740204045e-01  9.6767374721819066e-02  -5.8009103425903719e-01  -8.9798118771299695e-01  1.0889675936013508e+00  1.0645227774723476e+00  4.3845942240732926e-02  -8.2567968950607706e-01  -8.8353121737949880e-01  -7.1742157454249189e-01  -6.8517474283694590e-01  1.0060295084236888e+00  -7.7463717778054519e-01  1.0859831995066733e+00  1.5336458034922687e-01  -1.4118881525254065e-01  -5.7216567988542122e-01  9.8754037263345723e-02  7.6708453296947188e-01  9.5168058223701127e-02  -5.7211659202652820e-01  2.7011725342260423e-01  1.0290094825367737e+00  2.9023573530830987e-03  8.1822116380187349e-01  8.1841130264757722e-01  3.3858966849727229e-01  -6.2191378311036527e-01  1.1466654679418918e-01  1.0781309817136229e+00  7.9602482497402005e-01  1.0308809289378937e+00  6.6155470137639283e-01  7.8959170508286725e-01  6.7512817558643134e-01  -5.8264449539632401e-01  7.1470458027739825e-01  1.0190524800452674e+00  -5.0140976212199229e-01  4.4216762291038497e-01  -8.2870658497730587e-01  -6.5428746889407730e-01  4.7785637989907037e-01  2.0151179626173876e-01  -7.7035164582452054e-01  -8.2190554490641687e-01  -8.9222910671847311e-01  -5.2229289819776437e-01  1.0957133570048048e+00  -2.2147309072690710e-01  1.0889325225296869e+00  -8.7557122101462548e-01  1.0945215665360231e+00  -8.2870658497730620e-01  -3.0201975672848957e-01  -8.7579343695336953e-01  -2.8751048483111008e-01  9.3303982747614145e-02  -2.8751048483110930e-01  -4.7834019704929578e-02  -8.8161951816188355e-01  -3.1795206908969385e-02  1.0273305179132819e+00  -2.9398651788012992e-01  -8.2830706124758136e-01  -8.9306410828646499e-01  1.0882653585395208e+00  1.0230675809539447e+00  7.8542784366020346e-01  7.1573831597840731e-01  -8.6461749386956177e-01  4.7051923286178482e-01  -6.2381992243977402e-01  4.7785637989907037e-01  -1.1273918458724980e-01  -7.3401609352847197e-01  -2.8673640058352290e-01  -2.8751048483111008e-01  -5.0127202642692614e-01  -6.8277842939272593e-01  6.5150666786675437e-01  -3.0973971678931489e-01  1.0827424657287592e+00  1.0190524800452674e+00  -9.0278852365622841e-01  -8.5793846889027547e-01  2.1166147539893262e-01  9.0772978508110569e-01  -4.5003560455677843e-01  -8.2870658497730598e-01  1.0528308181112189e+00  -8.8395176472961379e-01  7.8503015291862932e-01  1.0793088503097008e+00  -2.8751048483110986e-01  4.7785637989907059e-01  4.7785637989907059e-01  -2.8751048483110986e-01  -2.8419672690048031e-01  -2.4128815228445563e-01  -7.7599251078548692e-01  9.8026647774528386e-01  5.7009194955104026e-01  5.5294737468129929e-01  4.7785637989907037e-01  4.7785637989907037e-01  -5.0904466806748405e-01  -4.7522116448847762e-01  -3.9206015865665972e-01  -6.9364966118513494e-01  -8.2629852226491385e-01  1.0636491369105996e+00  5.9045710950867381e-01  4.8046255999676185e-01  4.8104594408103418e-01  1.0190524800452674e+00  1.0190524800452669e+00  -2.8751048483110930e-01  4.7785637989907104e-01  1.0190524800452674e+00  4.7785637989907104e-01  -8.2870658497730609e-01  1.0190524800452669e+00  -2.8751048483110908e-01  1.0190524800452674e+00  1.0190524800452674e+00  -2.8751048483110908e-01  -8.2870658497730598e-01  -8.2870658497730609e-01  -8.2870658497730587e-01  -8.2870658497730620e-01  3.2904047149442395e-01  -8.2130582632119797e-01  -6.2478002125836241e-01  1.0985653822586143e+00  -2.7620963342617189e-01  -8.0383102664017292e-01  -2.7695164245603399e-01  9.6354859613618216e-01  1.0587573946780695e+00  1.0368022096718130e+00  8.6463842979910888e-01  8.8656222724930667e-01  6.8654453253430325e-01  9.2273697183624326e-01  2.5017140972312113e-01  3.5979745258117385e-01  2.6486971486283450e-01  6.9264213636575145e-01  -8.0175845721492089e-01  -7.9662367011737201e-01  4.0417719251918754e-01  1.0008752179248306e+00  6.0093151672803147e-01  1.0209773978144128e+00  2.6064520145835107e-01  -4.3402477762671435e-02  3.3384190038095579e-01  -8.8786096133271675e-01  1.9534158242032149e-01  5.8004498049593234e-01  -3.6261784594627744e-01  -8.7918732111814757e-01  -7.9013470699177224e-01  1.0111024667344566e+00  8.0705310007437903e-01  9.7950334672712347e-01  3.0842616411306145e-01  -6.6815827792920668e-01  -3.2892542221163856e-01  1.9333069567703584e-01  1.0574017746367874e+00  1.0262965206210721e+00  -8.7870869196592494e-01  5.8071119987248287e-01  -3.6791799168943334e-01  -7.6855973288688595e-02  7.5273724446472445e-01  -6.7016582284323611e-01  1.0514393392304164e+00  -8.8918216929293203e-01  -7.9149229638294516e-01  3.2495480976491048e-01  -1.1195623600863702e-01  -5.7103247295437776e-01  3.2948088717407198e-01  9.7259203653508453e-01  1.0432281405109387e+00  1.8604015822305786e-01  1.0604019887012892e+00  6.8079083100093796e-01  9.1222625505387867e-01  6.4087731513090584e-01  -4.5951978608369526e-01  -8.5454014979782145e-01  -3.2420187763342850e-01  -6.9539675536789958e-01  -7.7821542131864918e-01  -8.8096656182264588e-01  3.5995187126983902e-01  5.8435473774516422e-01  1.0716757428633992e+00  9.6717396487331608e-01  1.0949830726968515e+00  8.6894608886664548e-01  9.9671335690770657e-01  1.0988422443028800e+00  1.0681329291346904e+00  -3.4033861074870730e-01  -2.8679665370331686e-01  -7.7586363672210790e-01  -9.0037198142236119e-01  7.5719612645555945e-01  2.4813278385825202e-01  -1.9076133921355135e-01  -5.2782038769743511e-01  -6.0810231033701623e-01  -8.8396530655921624e-01  3.4734276852511020e-01  4.2171083975172097e-01  6.6909692873056725e-01  -2.2949672861371179e-01  -4.7593375184618286e-01  -1.3833054280117082e-01  3.3421329195815846e-01  -1.4711355832872131e-01  -3.8398310440181316e-01  8.4127586211033323e-01  8.7707620326003666e-01  -5.8596659965121100e-04  3.6236494750817438e-01  1.0322938854095376e+00  6.3677677757533924e-01  -8.8755177782206307e-01  -8.0162073822578583e-01  -5.3566409928594538e-01  -6.7811093581484838e-01  -4.2341991580370814e-01  1.1038603035332850e+00  -8.9537212569668212e-01  1.0862044272414189e+00  1.0165434454538151e+00  -8.1926930648303697e-01  -8.1863934489399481e-01  1.0964932766409670e+00  -7.4080908404616075e-01  -1.4452919739875647e-01  3.9487086168712426e-01  -2.6240111833851648e-01  2.2518518186603800e-02  -7.7107559859486208e-01  9.6160943487003914e-01  -5.3805725035503393e-01  -1.2437416782145454e-01  6.7960098836283933e-01  2.3493346203507648e-01  8.5464651902453437e-01  7.8996129824845118e-01  1.0324858806894239e+00  9.2340886281948686e-01  -1.4720629863669574e-01  9.2314306526972389e-01  1.0151140470543509e+00  -8.6119523841501011e-01  -8.9735460876193340e-01  -7.5606940234689099e-02  -3.2126770435037472e-01  9.0574399949299822e-01  -1.0988512914158158e-01  8.8133292485220227e-01  1.0136598455155881e+00  4.8787316826868432e-01  -8.2634263517780804e-01  -2.9428286155983557e-01  -2.7829354706686782e-01  5.2137261907558985e-01  -8.8500689292554002e-01  -8.3323416726781074e-01  -2.8838093997923518e-03  -5.6988271439072824e-01  -9.0321096162757453e-01  -6.0435603932584470e-01  3.6839746674146606e-01  3.1437745823814817e-01  1.0968319652596799e+00  -6.0114271981336165e-01  7.1601995210443503e-01  9.7198958698034099e-01  5.5185943087530787e-01  -8.2756986201815541e-01  9.5981865325488261e-02  9.6870696733014960e-02  4.9647794695525554e-01  9.6878110471991769e-02  9.5676503586043959e-02  -3.0474912018831557e-01  6.1392026763894603e-01  7.0049014525860109e-01  -8.7341543300835867e-01  -8.2833235884378931e-01  -9.8152781755221158e-02  4.9333008413496338e-01  -6.0594520803563279e-01  -8.8260313262884493e-01  1.1024725340903676e+00  -6.6156651201614491e-01  1.0964031864356443e+00  -7.0136791647854724e-01  -2.7825736362092895e-01  -5.6480407634085639e-01  -6.6979458573117878e-01  -6.9053325292362111e-01  -8.9553576758811704e-01  6.4895841758407791e-01  1.0921441450336806e+00  8.8404861920749944e-01  4.8622699802644925e-01  1.0631036454343834e+00  -9.8239389026763491e-02  2.1200734126771212e-01  -8.8413533664612776e-01  -8.9375440243767768e-01  -8.5390995468253805e-01  1.0884717002581150e+00  3.3575198553994112e-01  -8.9294165018195770e-01  -7.4938967280113955e-01  8.8730809913264153e-01  -4.7567003286480691e-01  1.0964452325961713e+00  5.1281996428826782e-01  1.0716458150612171e+00  1.0988221521521735e+00  8.1492665556305499e-01  9.9529413546573309e-01  -3.9436150748006726e-01  -6.3672306250703048e-01  -2.6202372028670023e-01  -9.9917374482148213e-02  -6.0073102241047149e-01  -8.4213006588676309e-01  4.0095461516161646e-01  1.0993752703072870e+00  4.2712267759961248e-01  -5.3376914365173289e-01  -7.5640208991809521e-01  1.0759582279372109e+00  8.5678438809391144e-01  -8.5843918911739495e-02  -2.2826063270154148e-01  1.0768608792105732e+00  -8.5635673142998336e-01  -8.1027041921264231e-01  2.3882390698100558e-01  -2.4797857519199416e-02  -7.3439600614607303e-01  -8.8659947386568794e-01  2.4384928806880687e-02  9.0719608176161759e-01  8.3800536024734318e-01  -3.6752122591956432e-01  1.0098014673587416e-01  1.0759582279372109e+00  4.4437772145732907e-01  5.1670597584835964e-01  1.0655988699789802e+00  1.0050959749672594e+00  -5.4875433291173736e-01  6.5406033934341234e-01  -4.9300562860841146e-01  9.6306261183785269e-01  8.9068714782032088e-01  -8.9034278271182532e-01  -9.0002441167804015e-01  -7.9470371142134766e-01  -7.4363097066238648e-01  -5.7972415869218596e-01  -7.2067613352961157e-01  1.0053813444422903e+00  -7.7227442856398965e-01  1.1819423432497045e-01  -4.6039728548562164e-01  8.8789994599239541e-01  1.7903682196809204e-01  2.9586946469768677e-01  -3.6708353946040201e-01  -9.0173543371035647e-01  1.0953533363815555e+00  6.5074318055358271e-01  3.6091688215538065e-01  3.7290751490525319e-02  8.7182938326219916e-01  -6.0637335046547447e-01  -5.5425805327528221e-01  -8.7515355400125883e-01  1.0829332129759119e+00  -2.5133922179119811e-01  -7.3629666476856492e-01  -6.4186009006944855e-01  -8.2281896598049264e-01  -6.8670886622411031e-01  -3.4762285544391719e-01  2.8178519170756910e-01  -3.3629086823486182e-01  -8.1006311426762490e-01  1.0975834162409219e+00  1.1026061760317878e+00  9.7059858680565725e-01  1.0948450425216836e+00  9.2664255983652588e-01  -8.9172831148736775e-01  -8.5838721631264869e-01  8.5910656736773816e-01  -8.4770306009901786e-01  -7.3629666476856459e-01  -8.9854396159159600e-01  -1.9658703783106447e-02  -8.8528379506083621e-01  8.0073600692974745e-01  6.4583797180445601e-01  -5.6595409715852396e-01  3.0535935092831892e-02  2.1918038685888697e-01  1.1211410048941488e-02  9.2664255983652610e-01  -9.0010251671312033e-02  1.1023048674969511e+00  -4.8779997604553793e-01  -7.6097936063456506e-01  -7.9360932457381672e-01  3.4753316909749188e-01  6.2456708318712106e-01  -2.6970339110935770e-01  9.2664255983652588e-01  1.0759582279372109e+00  9.6610306091938636e-01  7.8628932755994940e-01  5.6286612794431101e-01  -8.3901675328431047e-01  -5.9434464549243804e-01  6.9843590306931858e-01  -8.9725665050798020e-01  -1.7175226167264629e-01  8.0188964109537930e-01  -5.0808154463458488e-01  1.1016302056326224e+00  -8.8561233286924979e-01  3.0534052364391981e-02  8.6538686273271970e-01  9.8309468538781808e-01  2.0841762086033483e-01  5.0065792454843272e-01  1.9272654684516480e-01  1.0925181672109430e+00  1.0107480100776431e+00  5.6597267002459495e-01  9.0280114185344273e-01  8.9210601406173051e-01  5.5762926017468140e-01  -5.7880580741984780e-02  -7.2221689349117080e-01  -3.7828115744958640e-01  6.1316403726136381e-01  -4.1533226105178192e-02  -8.2632503109768063e-01  4.6263063099457097e-01  1.0759582279372113e+00  1.0525471931291011e+00  8.5234487150052818e-01  9.2701116713876641e-01  -8.1711578833484277e-01  -8.6047253197204954e-01  -7.8416607926000603e-01  -7.3559692191886705e-01  2.9026326955010873e-01  1.0397103844782734e+00  -2.7880063134868177e-01  -4.9935281181791857e-01  4.4402946495873008e-01  -7.1224651609917378e-01  -2.7317237409460010e-01  -4.8255260086940834e-04  -1.6238871405580607e-01  9.9969053193812452e-01  -7.8501166076877016e-01  -8.9649185408718635e-01  -5.0506716559100262e-01  -1.5603941307202426e-01  3.9090076992542028e-01  -1.9671962727362680e-01  9.6968990926807475e-01  6.9455724350717962e-01  -1.0806675658212067e-01  2.7033272593341273e-01  9.8826700109178189e-01  9.8640340979217800e-01  1.0864300927488302e+00  1.0906183023224814e+00  1.0259583712402340e+00  1.9570132881167254e-01  9.6970744071100634e-01  9.2664255983652588e-01  3.3309948933637284e-01  1.0920942980585315e+00  6.3802869416086441e-02  -3.3381601366234559e-01  -5.3744258775674747e-01  5.9313725771235393e-01  -5.4298493943816617e-01  1.0836604877119740e+00  -6.9259862097202751e-01  -8.7336264326695434e-01  5.2860296853063571e-01  -7.9979890907084406e-01  1.0295328574975262e+00  7.0549790662547052e-01  9.8052650723829216e-01  4.9048853426274869e-01  -3.4545090918673937e-01  -8.8561233286925012e-01  9.6059788366787169e-01  3.6259456781225186e-01  4.5457693333893642e-02  -8.3912481779370374e-01  8.9564114887084889e-01  -7.0475508301121470e-01  -3.5028475383380647e-01  -6.1367420568629194e-01  3.1963273395196201e-01  7.3854555936694788e-01  -6.5201591191187414e-01  1.0439923456711837e+00  1.0729942359212004e+00  8.0820579293329509e-01  6.7595848062691966e-01  6.5074318055358271e-01  5.9663967904486981e-01  -1.3197562536673849e-01  -8.6999756533608574e-01  1.4441924731965616e-01  1.0020085883840149e+00  5.6985574509714110e-01  7.1761584966277048e-01  6.5074318055358271e-01  7.0868385882472251e-01  -6.8285349935625705e-01  -8.9802892013897229e-01  -7.7608230905347042e-01  -8.8824170802620916e-01  -2.4892964811928200e-01  -5.0696533565579527e-01  6.6357114474092027e-01  5.1449480561228356e-01  2.9026326955010873e-01  2.9026326955010873e-01  -5.9672379778318818e-01  -9.9917374482147880e-02  -7.8965987823771489e-01  8.5172465377989071e-01  9.2664255983652588e-01  -7.3629666476856492e-01  -1.8337129178835501e-01  -3.9013761067021485e-01  -2.0717934328703494e-01  -8.9332021014911334e-01  -7.3433019653394604e-01  8.5959351554330055e-01  3.9120452076586548e-01  -8.8561233286925012e-01  9.4769504357712375e-01  1.0181550528689747e+00  2.6715053395967064e-01  1.0526489970346693e+00  -4.1092230293808452e-01  -8.7344844580213865e-01  -8.8475690367723991e-01  1.1006416557444008e+00  5.8121946680506242e-01  8.8937685880261963e-01  1.0589554476531193e+00  7.9168940497927653e-01  3.6694393503063022e-01  -5.8920363108390894e-01  -9.0048511585892665e-01  1.1036499634567745e+00  1.2513991217798029e-01  3.0123671107860700e-01  2.8403072426188813e-01  -3.9275219878614631e-01  5.8724275737145204e-01  -1.1691400338522311e-01  -9.8487724487513389e-02  -4.5899069858963015e-01  2.9026326955010917e-01  -4.6039728548562187e-01  -4.6039728548562120e-01  -7.3629666476856503e-01  -9.9917374482148213e-02  2.9026326955010873e-01  -9.9917374482146770e-02  -7.3629666476856470e-01  1.0759582279372113e+00  -7.3629666476856459e-01  -8.8561233286924979e-01  -7.3629666476856470e-01  2.9026326955010850e-01  -9.9917374482146770e-02  -4.6039728548562120e-01  6.5074318055358271e-01  2.9026326955010917e-01  -9.9917374482147880e-02  1.0759582279372109e+00  9.2664255983652588e-01  -8.8561233286924990e-01  -8.8561233286924990e-01  6.5074318055358227e-01  6.5074318055358271e-01  -4.6039728548562164e-01  6.5074318055358227e-01  1.0759582279372109e+00  -4.6039728548562142e-01  6.5074318055358271e-01  9.2664255983652588e-01  -8.8561233286925001e-01  2.9026326955010850e-01  -4.6039728548562187e-01  -9.9917374482147547e-02  -9.9917374482147547e-02  -4.6039728548562142e-01  1.0759582279372109e+00  9.2664255983652610e-01  -8.8561233286925001e-01  -7.3629666476856503e-01  4.3653200244629892e-01  7.8163488741571274e-01  4.3613013485086838e-01  1.0684345236370669e+00  -7.4626931447921863e-01  3.0334176557513087e-01  1.2528673224238374e-01  1.8052023343840579e-01  5.7958151478276454e-01  -5.1817673974987610e-01  1.0446240485446605e+00  1.0922480615855918e+00  -1.7672319749540866e-01  -7.3474827188346459e-01  -8.9424983399103952e-01  -7.2284600905232277e-01  -4.6520583446022784e-01  9.4209800372336039e-01  1.0728906969909822e+00  9.0753445345152228e-01  6.1739699117461322e-01  8.4263958784216764e-01  -1.3301038554777561e-01  -8.2182476837234050e-02  -8.6529322142711296e-01  -5.3229083180322956e-01  -2.0409162554853817e-02  9.1237534975357681e-01  1.1012176853921865e+00  -8.8425066758085746e-01  9.7145987290446256e-01  -8.6928200583905646e-01  -8.0540418054842944e-01  8.2707720114699823e-01  -3.5156249097713288e-01  9.7329564541024582e-01  -3.6291618461512676e-01  4.8218104941343209e-01  1.0664904756089728e+00  1.0012482414140065e+00  -3.5339533187340294e-01  7.2176178155362969e-01  -5.1908010359703727e-01  5.1355764670865367e-01  1.0951001739800452e+00  -2.3347468039523878e-01  -4.2716011888981231e-01  -1.7350674357889415e-01  9.9771334005516787e-01  9.2055560013094895e-01  6.8561950402473237e-01  8.6864602429133142e-01  -4.4667242485979058e-01  1.0395887203628535e+00  -4.1066399683899452e-01  -4.9636695071150833e-01  -3.9250982560408826e-01  -2.2140769841151400e-02  9.8651515892110880e-02  4.0762776937929407e-01  7.7626785144405519e-02  -1.1165426224547701e-02  -2.1945120354404829e-01  1.1015990345625346e+00  -8.8391985741601875e-01  -7.6738344617230092e-01  -6.8513909266158912e-01  1.0850476111785718e+00  -7.0972686557335685e-01  9.9842289831973485e-01  9.0215308771075509e-01  7.0290127543434655e-01  7.3179365234251004e-01  3.5624043837499991e-01  4.1909847985235277e-01  -2.8641908513256220e-01  1.0647845021515285e+00  -5.3466779358548688e-01  -3.2935591529291340e-02  4.6876100871002246e-01  1.0471918610157487e+00  6.9611305170227733e-01  -6.8053843619461107e-01  -3.4971117864944395e-01  1.0187673513966582e+00  1.8514166724966877e-01  7.9715409700062922e-01  -6.6596595330846120e-01  -6.3844651782116590e-01  1.0463018498353411e+00  -4.3082893253470023e-01  -3.7063351282061557e-01  1.0699425667207953e-01  -6.5752726830006336e-01  -7.2822834903440414e-01  -7.4470571474881786e-01  -7.3434904218693997e-01  -9.0186430702692177e-01  8.4189182444429489e-01  6.0421034846038557e-01  -8.9809741633088347e-01  1.0527568782717167e+00  4.3810649776302624e-01  -3.2848107720576739e-02  -8.2033761042425724e-01  -8.1541784938705183e-04  7.0605958682107173e-01  -8.9781465194612509e-01  -8.4776960003957935e-01  9.8820188744185944e-01  9.0694634399357332e-01  1.064600693090392