<?xml version="1.0"?>
<VTKFile type="UnstructuredGrid"  version="0.1"  >
<UnstructuredGrid>
<Piece  NumberOfPoints="15681" NumberOfCells="30848">
<Points>
<DataArray  type="Float64"  NumberOfComponents="3"  format="ascii">0 1 0  0 0 0  1 0 0  1 1 0  0.5 0 0  1 0.5 0  0.5 1 0  0 0.5 0  0.5 0.5 0  0 0.25 0  0.25 0 0  0.25 1 0  0 0.75 0  1 0.25 0  0.75 0 0  1 0.75 0  0.75 1 0  0.7083333333333333 0.2916666666666667 0  0.2916666666666666 0.7083333333333334 0  0.375 0.25 0  0.75 0.625 0  0.2569444444444444 0.4652777777777778 0  0.5366379310344828 0.7535919540229885 0  0.1875 0.1875 0  0.8125 0.8125 0  0.869047619047619 0.375 0  0.1450441919191919 0.6052714646464646 0  0.375 0.8690476190476191 0  0.5526960784313725 0.1825980392156862 0  0.8385416666666666 0.1614583333333334 0  0.1614583333333333 0.8385416666666667 0  0.6736111111111112 0.4652777777777778 0  0.1367521367521368 0.3477564102564102 0  0.6570970491253563 0.8648656830417855 0  0.5102479397556124 0.3386260301221938 0  0.3654513888888889 0.5737847222222222 0  0.6929750044954185 0.1362784921584263 0  0.388576102743835 0.411911725237599 0  0.6091269841269842 0.5942460317460317 0  0.875 0.6875 0  0.427278890279516 0.119889445139758 0  0.8544456845238095 0.5213913690476191 0  0.125 0 0  0 0.125 0  1 0.875 0  0.875 1 0  0.1280008648150532 0.4769292340226777 0  0.2695382451711197 0.3321750950221553 0  0.7031567235715964 0.7447810921428012 0  0.625 0 0  0.375 0 0  0.125 1 0  0.875 0 0  0 0.375 0  0 0.625 0  1 0.375 0  0.375 1 0  1 0.125 0  0 0.875 0  0.625 1 0  1 0.625 0  0.2979288363930608 0.1201429454643536 0  0.410919540229885 0.7484605911330049 0  0.5325041980395562 0.878905151526474 0  0.4831670727569156 0.6331060043826487 0  0.1735997378973042 0.7204747378973043 0  0.2534919507575758 0.5772372159090909 0  0.2633928571428572 0.8876488095238095 0  0.8199404761904761 0.2730654761904762 0  0.75830270586982 0.3919383189517417 0  0.5750282248382511 0.4237522353023667 0  0.6008360210023379 0.2794828358598495 0  0.08163442644334186 0.6821295860397322 0  0.08333333333333333 0.1875 0  0.2028380815996574 0.08844602719988583 0  0.2766521142611967 0.2325436572164097 0  0.90625 0.78125 0  0.890625 0.890625 0  0.7545696325008384 0.8973565441669461 0  0.5625 0.08086590340834317 0  0.09077380952380953 0.09077380952380952 0  0.4610923478694773 0.209034015149656 0  0.7542527598351648 0.5248380520595106 0  0.6459235536037465 0.3619913988405765 0  0.7560381768882634 0.20506142233852 0  0.07073252688172042 0.8125 0  0.0924753097241701 0.9078102849914793 0  0.9292674731182795 0.1875 0  0.9075246902758297 0.09218971500852073 0  0.8125 0.07073252688172045 0  0.2400955776842301 0.7869705776842302 0  0.9121050213379069 0.2781978201831695 0  0.7916878157143976 0.7239689078571988 0  0.9345238095238094 0.4375 0  0.4375 0.9345238095238095 0  0.3725616989755203 0.6651895248862173 0  0.06536271996350887 0.5625 0  0.9348362560379583 0.5625 0  0.456646798987055 0.8277247094351965 0  0.1875 0.9355758238725954 0  0.6169761231634859 0.6939779188977889 0  0.6226854751147515 0.7827911461419014 0  0.3305695598137626 0.7901697871282585 0  0.5865305325818898 0.5101085479043448 0  0.6622701297028378 0.2177663989757395 0  0.1354166666666667 0.2591702279202279 0  0 0.3125 0  0.2094429575680048 0.3936361846162499 0  0.836666296419157 0.607917407161686 0  0.6875 1 0  0.214261555450504 0.6492551722020035 0  0 0.4375 0  0.07731537126068377 0.40625 0  0.3427725432967068 0.4879566233699599 0  0.3550792513951871 0.3331953632609953 0  0.4462473953896857 0.2887834789342508 0  0.4747801464819794 0.417386052030127 0  0.8229836475148948 0.4443292349237342 0  0.7322605135514757 0.8199240278289671 0  0.6756431877205955 0.5468989748126787 0  0.1968419507215863 0.5194573482612496 0  0.3285590277777778 0.9345238095238095 0  0.8125 1 0  0.4198917601920009 0.5134893045331258 0  0.5232405503206691 0.2595791787880157 0  1 0.9375 0  0.1987510870015086 0.3025185951894431 0  0.5625 1 0  0.6005390654136388 0.9228110509230952 0  0.6411254848194414 0.07704872765442942 0  0.3357233162523242 0.1855113224530532 0  0.6730653396610877 0.6393887462324165 0  0.310966987234063 0.6240019765311626 0  0.7368737836204349 0.07457755202327881 0  0.6192316414418171 0.1485238406378594 0  0.5432429670607106 0.678552703844006 0  0.4754371679695679 0.7103946803120881 0  0.07501324890749672 0.3043839897335739 0  0.5358146975860403 0.5688321463205916 0  0.3115271739500156 0.3982137365971444 0  0.3625191397122174 0.0767854603650549 0  0.5024029442563831 0.1264128223758444 0  0.4375 0 0  0.4699946908887376 0.06379961173775725 0  0.9375 0.71875 0  0.9272105898044465 0.635671179608893 0  0.9375 1 0  0.6690971819568612 0.9331530898202766 0  0.1073454944778885 0.7499206387638554 0  0.8699082999280406 0.2232403652524313 0  0.5773118091863964 0.3548027349159383 0  0.1354166666666667 0.1428571428571428 0  0.3125 0 0  0.8241684193077341 0.9257452995055244 0  0.4352314948354036 0.3586940847489378 0  0.4351301473778832 0.5819726043539077 0  0.8073232928518163 0.3419398170341962 0  0.7775949246947366 0.1298519409204575 0  0.6875 0 0  0.7413513991851041 0.457933324954483 0  0.939453125 0.841796875 0  0.5630355154606987 0.8171875156478349 0  0.9345238095238095 0.3461466592368577 0  0.9375 0 0  1 0.0625 0  0.0625 1 0  0 0.9375 0  0.06552178593177167 0.4969053669623468 0  0.1424866619031703 0.4130277709291224 0  0.1275287182444726 0.5422946908002588 0  0.2637686595586339 0.06413888464529549 0  0.2524263535491086 0.1697437503243817 0  0.7367218397988525 0.6888573970660841 0  0.0625 0 0  0 0.0625 0  0.8463594539285995 0.7578283617857982 0  0.3128751192101563 0.2851997374369947 0  0.4015281788351144 0.1806421385113692 0  0.1910251795116588 0.4553332197174453 0  0.287797471442006 0.5222621440543902 0  0.3962628745986055 0.8097380085535307 0  0.3505895299554843 0.7304878890838692 0  0.5019151500495276 0.9356042615328103 0  0.9374389419410134 0.4999931039076005 0  0.3125 1 0  0.1875 1 0  1 0.5625 0  0.4375 1 0  1 0.3125 0  1 0.4375 0  0.8125 0 0  1 0.1875 0  0.5625 0 0  0.1875 0 0  0 0.1875 0  0 0.5625 0  0 0.6875 0  0 0.8125 0  1 0.6875 0  1 0.8125 0  0.8021696218581627 0.6612893947866073 0  0.06154922295426143 0.6239401126946708 0  0.9359375 0.9359375 0  0.4666158024849896 0.7691515918155014 0  0.2318201265217025 0.7064974250277525 0  0.1565954253579966 0.6635489312486841 0  0.1598132503680848 0.7787147500325552 0  0.3146529991605639 0.8510876378205265 0  0.1461873209418733 0.05982804528877814 0  0.06109554988524315 0.2446551776247686 0  0.8054950308560754 0.5564226538848541 0  0.470541749491976 0.8853316336952531 0  0.6948472567465137 0.4042308563372457 0  0.8802828472348889 0.4658893256343853 0  0.6788075634946739 0.7974194205806069 0  0.2155048659603867 0.2428201584940968 0  0.8131223143423806 0.2132171049028394 0  0.4330798005432235 0.6671274900735726 0  0.6015279126162613 0.2187368078743274 0  0.8061636571464289 0.8703766630361714 0  0.7008230445061776 0.3478568388444072 0  0.8638466246958771 0.3147095987735538 0  0.204801534004265 0.8789209409594009 0  0.2449006736431132 0.9424182882803838 0  0.7611268409371427 0.2643056884799992 0  0.7552800864046191 0.7678006649959446 0  0.5983639638906616 0.864113435029236 0  0.1956559506814437 0.577281203577426 0  0.3527670268164207 0.1320469097565204 0  0.7530364577483248 0.3262386077083089 0  0.4535919187979363 0.4690107087451527 0  0.8824869791666666 0.8336588541666666 0  0.8814453125 0.9451171875 0  0.5582987942628019 0.622421666543858 0  0.6817532446064828 0.6939001801354731 0  0.3830295138888889 0.9450968952922078 0  0.4140603937012541 0.05211333372716105 0  0.5535864501303013 0.3060591985391672 0  0.6560130086346878 0.2729726562211558 0  0.890203140221684 0.5948314305427268 0  0.7043857725999024 0.593980890020804 0  0.5105843922695152 0.8016828014338627 0  0.05365910753708378 0.7315110031682004 0  0.616904573672261 0.4621186633436136 0  0.5338511646455415 0.387875898899613 0  0.5231769258947843 0.4477682463140762 0  0.650302973237622 0.7370722302085519 0  0.3927483139621257 0.4662414504529014 0  0.8034595960585199 0.4972538342758211 0  0.7738337841682438 0.9496376207663251 0  0.7193737507158268 0.954685447650112 0  0.482525916480686 0.5528257169991676 0  0.2533501157346781 0.2809495420003238 0  0.3118487924482243 0.5702930126570319 0  0.6257598847669529 0.4104163315430518 0  0.1354166666666667 0.1955605158730158 0  0.04166666666666666 0.15625 0  0.3956448985530264 0.6174149462065157 0  0.8102897701818546 0.3938784238208349 0  0.2641154190013625 0.8344469561943118 0  0.642852220770013 0.5068794586563659 0  0.05271458179508221 0.355846947336007 0  0.7021551360070266 0.8921457280225779 0  0.5692125776683765 0.1328512638850284 0  0.5206162811937602 0.04865158770992991 0  0.6001838442201555 0.04540556991297563 0  0.2597716608242787 0.4118346398477178 0  0.4040584599473195 0.3179589136784675 0  0.1480337679295207 0.8941560631483065 0  0.1344356707112281 0.9466251177415842 0  0.7114696411829317 0.4983917389078826 0  0.7585704698442475 0.5751926345944629 0  0.2189131956390871 0.04022068508159698 0  0.2476935455192043 0.1123642267635843 0  0.185995005654517 0.1365524537205238 0  0.6223414373308711 0.643380839165121 0  0.5732602596637543 0.7190051747306219 0  0.268358222364537 0.6586246524467934 0  0.3265879848129173 0.2369791782191225 0  0.1267095595787346 0.7034787238999181 0  0.1115202922226038 0.6421997933884982 0  0.3128688392940203 0.07260997451790079 0  0.550724900485678 0.9253360991633187 0  0.7142608810459105 0.2384904702214873 0  0.7045869185243887 0.1871826897887429 0  0.890625 0.734375 0  0.953125 0.765625 0  0.2111812642821677 0.8286209446459138 0  0.9590293078204457 0.09375 0  0.953431269039847 0.1435719386408004 0  0.04097069217955424 0.90625 0  0.04656873096015299 0.8564280613591996 0  0.1078743037981226 0.8541621766048062 0  0.8921256962018773 0.1458378233951939 0  0.8521576979194619 0.1084496634207678 0  0.8655663982740958 0.05464346096571447 0  0.04005659640905543 0.09375 0  0.1001448316533417 0.0424677624422826
[...]
<PointData  Scalars="f_14608"> 
<DataArray  type="Float64"  Name="f_14608"  format="ascii">1.9732715717279969e-03  1.9732715717282190e-03  1.9732715717279969e-03  1.9732715717277749e-03  1.9732715717284410e-03  1.9732715717286631e-03  1.9732715717286631e-03  1.9732715717284410e-03  1.4502426295588660e-02  1.0019732715717282e+00  1.0019732715717282e+00  1.0019732715717282e+00  -9.9802672842827178e-01  1.0019732715717282e+00  -9.9802672842827178e-01  -9.9802672842827167e-01  -9.9802672842827167e-01  1.1197899651681891e-02  1.1212135947853866e-02  -6.9568130896929092e-01  7.1828313094696217e-01  -9.7245888759198007e-01  9.8010872135028071e-01  7.1480396874985164e-01  -6.9959326636407548e-01  1.0075238195246361e+00  -9.9158609152298904e-01  1.0072381926248901e+00  -9.8579817806905201e-01  6.6348958891038687e-03  6.6216475440349877e-03  7.7938160273418255e-01  1.0530133286114669e-01  -1.2958508317230713e-01  -7.9983540094186600e-01  -3.5896111500846445e-01  -8.7073760928492361e-01  -9.3637194575299143e-01  9.7073893590146532e-01  -3.7520790071363314e-01  -2.8415922032887131e-01  7.1204728584777055e-01  7.0908005275827568e-01  7.0908005275827568e-01  -7.0513350961482024e-01  -7.0513350961482024e-01  -6.0438651104935392e-01  -5.8512582601322904e-01  3.3206084009678505e-01  -7.0513350961481924e-01  7.0908005275827568e-01  7.0908005275827568e-01  -7.0513350961481946e-01  7.0908005275827568e-01  -7.0513350961481924e-01  7.0908005275827657e-01  7.0908005275827657e-01  7.0908005275827568e-01  -7.0513350961481946e-01  -7.0513350961481969e-01  -7.0513350961481969e-01  4.9953524180021036e-01  8.5377088132829071e-01  5.3609900165568170e-01  6.8088184775770000e-01  -6.0892798651219415e-01  -8.6218909089509232e-01  8.1969486876815156e-01  5.6049538844045155e-01  8.2130893731640531e-01  6.3854352789205785e-03  -6.7106205789308393e-01  -9.9047027723196623e-01  9.9627870218616754e-01  9.7189450775475605e-01  -4.7744734536755803e-02  -9.1824644412351308e-01  -9.7631249557889477e-01  -8.0987691365861658e-01  -7.7757131743395180e-01  9.1313546107642196e-01  -8.6596412055373606e-01  9.9490508085081619e-01  6.2622919415702250e-02  -2.3305046837972254e-01  -6.6492689585173281e-01  5.8681936400936758e-03  6.7432322824977020e-01  2.2823295672038850e-03  -6.6487781004625746e-01  1.7827956499504283e-01  9.3651279163136014e-01  -8.8826719111992317e-02  7.2567820934941285e-01  7.2586833666169237e-01  2.4780839082594044e-01  -7.1445615210321667e-01  2.2120181466250086e-02  9.8652320195226872e-01  7.0322731739799349e-01  9.4000058519140439e-01  5.7016386910661410e-01  6.9804457150959476e-01  5.8479437089085318e-01  -6.7412165335860741e-01  6.2249678927870022e-01  9.2585280408301496e-01  -5.9281388058440931e-01  3.5042407088644051e-01  -9.2190626093955819e-01  -7.4575286544731956e-01  3.8465670393681806e-01  1.0906688465832892e-01  -8.6090962075530464e-01  -9.1274353292931709e-01  -9.8307263738198591e-01  -6.1262168592326938e-01  1.0041338875808705e+00  -3.1338995343193998e-01  9.9826575143191576e-01  -9.6697772518037173e-01  1.0019092617775196e+00  -9.2190626093955852e-01  -3.9233780852590827e-01  -9.6677996400283994e-01  -3.8071016079336240e-01  1.6130185394523089e-03  -3.8071016079336162e-01  -1.4028739851797931e-01  -9.7410357080315912e-01  -1.2348088968209589e-01  9.3647790703473066e-01  -3.8485817689055063e-01  -9.2092323684289656e-01  -9.8493339302353511e-01  9.9758913219758560e-01  9.3224723221771111e-01  6.9287036833106141e-01  6.2542555225466978e-01  -9.5542843318322324e-01  3.7803708897650873e-01  -7.1578975702194281e-01  3.8465670393681806e-01  -2.0528808880605287e-01  -8.2670167217565438e-01  -3.7925511326044870e-01  -3.8071016079336240e-01  -5.9387151420463025e-01  -7.7519087425656530e-01  5.5916776590715922e-01  -4.0032184937713799e-01  9.9017326466461753e-01  9.2585280408301496e-01  -9.9555250208998702e-01  -9.4848289189532287e-01  1.2128564084458192e-01  8.1610219197420553e-01  -5.4237783238258253e-01  -9.2190626093955830e-01  9.6182232843531734e-01  -9.7681839134842419e-01  6.9348701337973928e-01  9.8671204493593279e-01  -3.8071016079336217e-01  3.8465670393681828e-01  3.8465670393681828e-01  -3.8071016079336217e-01  -3.7672659789315877e-01  -3.3316432411681790e-01  -8.6796228551206978e-01  8.8757545429620222e-01  4.7807232164425562e-01  4.6163396608912755e-01  3.8465670393681806e-01  3.8465670393681806e-01  -6.0119488319496495e-01  -5.6641517049950107e-01  -4.8365514935703580e-01  -7.8511104745690474e-01  -9.1712284049468196e-01  9.7211141709287940e-01  4.9930863725688707e-01  3.8791963935320894e-01  3.8848538896777007e-01  9.2585280408301496e-01  9.2585280408301474e-01  -3.8071016079336162e-01  3.8465670393681872e-01  9.2585280408301496e-01  3.8465670393681872e-01  -9.2190626093955841e-01  9.2585280408301474e-01  -3.8071016079336140e-01  9.2585280408301496e-01  9.2585280408301496e-01  -3.8071016079336140e-01  -9.2190626093955830e-01  -9.2190626093955841e-01  -9.2190626093955819e-01  -9.2190626093955852e-01  2.3743615119575046e-01  -9.1391458139271231e-01  -7.1781362464630127e-01  1.0073864769245910e+00  -3.6774518460927813e-01  -8.9571736343286390e-01  -3.6913206712224522e-01  8.7156025572814677e-01  9.6586913775151906e-01  9.4406529649199811e-01  7.7318792327478458e-01  7.9448173795293164e-01  5.9571203669619011e-01  8.3069953074628133e-01  1.5855086052390657e-01  2.6798652069498391e-01  1.7279621388315861e-01  6.0198804531116223e-01  -8.9309420633624315e-01  -8.8905276071253136e-01  3.1316644117054832e-01  9.0879648774854871e-01  5.0849087800876192e-01  9.2821439072958856e-01  1.6903333512125585e-01  -1.3513213885439640e-01  2.4189499444084878e-01  -9.7932032281765113e-01  1.0330373568691459e-01  4.8870126172169764e-01  -4.5288917214138585e-01  -9.7175845735347766e-01  -8.8309196572122717e-01  9.2062678075587023e-01  7.1596403787089802e-01  8.8683643337434881e-01  2.1574869674041666e-01  -7.5891445942629965e-01  -4.2007448272360898e-01  1.0116930237399029e-01  9.6652355058017869e-01  9.3489806980307077e-01  -9.7147463403362500e-01  4.9027891779124605e-01  -4.5832981087579799e-01  -1.6713003720652742e-01  6.6154815812157319e-01  -7.6056264790510641e-01  9.6002900704942640e-01  -9.8201797963921988e-01  -8.8431398829727426e-01  2.3468205827216740e-01  -2.0342621360518376e-01  -6.6178387199876187e-01  2.3893956117978679e-01  8.8020217615225171e-01  9.5026220030690589e-01  9.5489060139941448e-02  9.6885677369077472e-01  5.8877967199288295e-01  8.2172153403416737e-01  5.4817597857111877e-01  -5.5183849051146650e-01  -9.4648127461343046e-01  -4.1689859259745304e-01  -7.8814447615064576e-01  -8.6927061092745150e-01  -9.7173528963050615e-01  2.6727642445799754e-01  4.9141685949772573e-01  9.8085584153062633e-01  8.7602103434346135e-01  1.0020721793750809e+00  7.7656283706814044e-01  9.0429836159214838e-01  1.0081544734209071e+00  9.7721486674139901e-01  -4.3151964869552567e-01  -3.7819034947359925e-01  -8.6804595315531574e-01  -9.9256726588379240e-01  6.6462897737567805e-01  1.5568023490870228e-01  -2.8229028100883718e-01  -6.1960578569747438e-01  -7.0047129315326617e-01  -9.7681688409843981e-01  2.5518559292026244e-01  3.2866452399763563e-01  5.7613996269246870e-01  -3.2254299292402427e-01  -5.6889076884489598e-01  -2.3100367350348930e-01  2.4154028527493121e-01  -2.3977819734579536e-01  -4.7691511342543991e-01  7.4822660350012127e-01  7.8404439822429994e-01  -9.3649551842089410e-02  2.6931582427979672e-01  9.4016730966164852e-01  5.4366832528446585e-01  -9.8000569625382894e-01  -8.9316895148058273e-01  -6.2734128106537201e-01  -7.6936770232512375e-01  -5.1589407540291754e-01  1.0132030163878440e+00  -9.8611879006683478e-01  9.9342569007663895e-01  9.2373517301962782e-01  -9.1215776505901369e-01  -9.1155380777958994e-01  1.0037002824115986e+00  -8.3380886704378954e-01  -2.3641180558978458e-01  3.0334567279196956e-01  -3.5318626546981519e-01  -6.9550478961066489e-02  -8.6285516119102035e-01  8.7116603457043840e-01  -6.3014616485058339e-01  -2.1602321813875450e-01  5.8867537780441426e-01  1.4392714169264803e-01  7.6244340427726087e-01  6.9708603795489399e-01  9.4033753190645042e-01  8.3164924152019504e-01  -2.3954795114560753e-01  8.3040165578849690e-01  9.2219875081341374e-01  -9.5342720367099287e-01  -9.8844217125610534e-01  -1.6748664606797931e-01  -4.1321129338985008e-01  8.1448955292759617e-01  -2.0206063898730173e-01  7.9000851300316577e-01  9.2191097445949566e-01  3.9501851252244741e-01  -9.1852262150752728e-01  -3.8714126551042605e-01  -3.7116491827571585e-01  4.2915274927588459e-01  -9.7561173355409336e-01  -9.2611591141734639e-01  -9.3848910193300689e-02  -6.6208821437301624e-01  -9.9613149938784407e-01  -6.9724869704140280e-01  2.7668054685641003e-01  2.2407778549100940e-01  1.0039784457711864e+00  -6.9172059138858688e-01  6.2390124657621904e-01  8.7950275806990519e-01  4.5965681694873584e-01  -9.2047330169548602e-01  3.1100811556130587e-03  4.0101128623744736e-03  4.0361908219752685e-01  4.0045787795958861e-03  2.5502073615565743e-03  -3.9789801909282485e-01  5.2212849678695816e-01  6.0907356735184370e-01  -9.6462609962075652e-01  -9.2135386777763317e-01  -1.9007863222486066e-01  4.0306892743005301e-01  -6.9881394908688210e-01  -9.7516602016764531e-01  1.0118250794268919e+00  -7.5192421278167443e-01  1.0037408619002468e+00  -7.9182076707716476e-01  -3.7112891529039538e-01  -6.5602385008218078e-01  -7.6081143486018465e-01  -7.8155899776399662e-01  -9.8615533960818769e-01  5.5733674258079424e-01  1.0012442359823832e+00  7.9319087255337040e-01  3.9573988998017062e-01  9.7074226344389425e-01  -1.8891538929015789e-01  1.2023461036755304e-01  -9.7536527107837001e-01  -9.8474581773392578e-01  -9.4468313379757030e-01  9.9622876588684783e-01  2.4343949800718756e-01  -9.8361688070328313e-01  -8.4176374277266053e-01  7.9693822958887228e-01  -5.6815729236023049e-01  1.0035299166348286e+00  4.1998980048649015e-01  9.8033832224844375e-01  1.0070142042818653e+00  7.2453441830774357e-01  9.0358371789797420e-01  -4.8708526308923972e-01  -7.2791926110304961e-01  -3.5346596099050537e-01  -1.9311705044440053e-01  -6.9242606109871818e-01  -9.3372449822558545e-01  3.0911123775427513e-01  1.0075665509988270e+00  3.3521348026725023e-01  -6.2420047869877671e-01  -8.4762316824908335e-01  9.8275855197495865e-01  7.6432265969519941e-01  -1.7609644439384767e-01  -3.1866007754718040e-01  9.8554012120339340e-01  -9.4698893017041141e-01  -9.0123968183394387e-01  1.4729257763256409e-01  -1.1701063358152532e-01  -8.2602373945729313e-01  -9.7781268779654007e-01  -6.7258065920307669e-02  8.1607988961309130e-01  7.4693189960633000e-01  -4.5950265546249491e-01  9.3242593634098418e-03  9.8275855197495865e-01  3.5189902897180986e-01  4.2634993985851283e-01  9.7307355268004359e-01  9.1219775631386790e-01  -6.4105343380553659e-01  5.6232199747879785e-01  -5.8579144148349716e-01  8.7018076548354717e-01  7.9815377242874674e-01  -9.8253933016838124e-01  -9.9283592536538923e-01  -8.8514522846866339e-01  -8.3595124108066377e-01  -6.7281183727661553e-01  -8.1168566303144651e-01  9.1450204964740578e-01  -8.6324861291311394e-01  2.6019128570300230e-02  -5.5359696144787396e-01  7.9727122510076431e-01  8.6361014013440776e-02  2.0368742173762461e-01  -4.5962697610944270e-01  -9.9454126004427090e-01  1.0030929726021842e+00  5.5754350459133040e-01  2.6896878925394019e-01  -5.3006903751853088e-02  7.7898690058677089e-01  -6.9762543431356627e-01  -6.4642760639977093e-01  -9.6679566368188385e-01  9.9058864812293879e-01  -3.4302777943606438e-01  -8.2949634073081724e-01  -7.3484063424627766e-01  -9.1441124938137142e-01  -7.7933988704080115e-01  -4.3905636562775369e-01  1.8982667175014181e-01  -4.2845210342457285e-01  -9.0181862559938586e-01  1.0067447176350481e+00  1.0115781680277371e+00  8.8007320826797042e-01  1.0019905934702662e+00  8.3344288387427357e-01  -9.8451024243609409e-01  -9.5101906174366746e-01  7.6655999654854101e-01  -9.3893619004040463e-01  -8.2949634073081691e-01  -9.9023393073115684e-01  -1.1203538487502773e-01  -9.7609343127784198e-01  7.0854433961994800e-01  5.5360549805445813e-01  -6.5692718010473039e-01  -6.0307944507548270e-02  1.2738066133930567e-01  -7.9375331911892624e-02  8.3344288387427379e-01  -1.8253771765690310e-01  1.0111562270195131e+00  -5.8001664342169590e-01  -8.5364477952474060e-01  -8.8600312606464493e-01  2.5568306144716990e-01  5.3400725456993792e-01  -3.5996600740841456e-01  8.3344288387427357e-01  9.8275855197495865e-01  8.7314521021049640e-01  6.9345450417677768e-01  4.7009926749167019e-01  -9.3150577321298311e-01  -6.8650764723501900e-01  6.0740389688436403e-01  -9.9018815423518547e-01  -2.6363016902198405e-01  7.1017587308022034e-01  -5.9962395383509759e-01  1.0102934449927141e+00  -9.7881200883150210e-01  -6.1539469141529100e-02  7.7238287828425323e-01  8.9013529845764461e-01  1.1558497899729749e-01  4.0836677418342804e-01  1.0247833698951610e-01  1.0000168555308451e+00  9.1849687198835539e-01  4.7461014969560156e-01  8.1197848226552338e-01  8.0111080096734810e-01  4.6626140189840259e-01  -1.4896065728160732e-01  -8.1518794511948467e-01  -4.7039555275328998e-01  5.2105264766976922e-01  -1.3438142479093540e-01  -9.1744278478116059e-01  3.7062220356382636e-01  9.8275855197495887e-01  9.6078523970750995e-01  7.6051688505590953e-01  8.3559039182765327e-01  -9.0796957839003312e-01  -9.5341663245811281e-01  -8.7677824572817742e-01  -8.2847419885444606e-01  1.9706359358785641e-01  9.4782608707023830e-01  -3.7084107091878926e-01  -5.9109129492750401e-01  3.5333436010071506e-01  -8.0512844842546383e-01  -3.6548359087366311e-01  -9.0933768074356325e-02  -2.5536717132224890e-01  9.0904453562718879e-01  -8.7805080925854051e-01  -9.8924682973491584e-01  -5.9560247506331165e-01  -2.4649401505239255e-01  2.9805069087396047e-01  -2.8956966585584859e-01  8.7837935736886497e-01  6.0307246386557845e-01  -1.9982280330521979e-01  1.7876629714322223e-01  8.9585111499140058e-01  8.9402367286233997e-01  9.9382098730063884e-01  9.9787896220792061e-01  9.3493277915533035e-01  1.0256768705832651e-01  8.7874472365333112e-01  8.3344288387427357e-01  2.4081791241119260e-01  9.9917207525048857e-01  -2.9230249247696117e-02  -4.2517583717175589e-01  -6.2930497645589734e-01  5.0132898548932592e-01  -6.3608041804974835e-01  9.9311147759964813e-01  -7.8515548251116707e-01  -9.6635884689367724e-01  4.3626930085044086e-01  -8.9115294368266240e-01  9.3886911328102873e-01  6.1326939029738392e-01  8.8763451311249963e-01  3.9908692927399592e-01  -4.3641408358695033e-01  -9.7881200883150243e-01  8.6817933826952831e-01  2.7234797573975966e-01  -4.6694648695551337e-02  -9.3011781667542159e-01  8.0461779652125975e-01  -7.9661535374673897e-01  -4.4061333684449905e-01  -7.0511871565542483e-01  2.2739530786126350e-01  6.4731435203225840e-01  -7.4429158985711485e-01  9.5130606814867369e-01  9.8005785045276972e-01  7.1573563614626856e-01  5.8309514047510258e-01  5.5754350459133040e-01  5.0632593981895824e-01  -2.2231645948540074e-01  -9.6190208799295784e-01  5.2613218761059108e-02  9.0906583837401977e-01  4.7857157103673070e-01  6.2517694443562299e-01  5.5754350459133040e-01  6.1612696516810317e-01  -7.7521186976302958e-01  -9.9072219883166890e-01  -8.6674693658425772e-01  -9.8085405756599731e-01  -3.4087218914202710e-01  -5.9775794534005844e-01  5.7103510169992311e-01  4.2219436313413577e-01  1.9706359358785641e-01  1.9706359358785641e-01  -6.8891026630691188e-01  -1.9311705044440020e-01  -8.8258154641898157e-01  7.5871015880911508e-01  8.3344288387427357e-01  -8.2949634073081724e-01  -2.7574462964110302e-01  -4.8139666318720847e-01  -2.9857672522526180e-01  -9.8399437850685678e-01  -8.2646262843117579e-01  7.6729824912454192e-01  3.0036524281388677e-01  -9.7881200883150243e-01  8.5465256254619026e-01  9.2525589944595188e-01  1.7470603047560165e-01  9.6080588626296803e-01  -5.0398801124566972e-01  -9.6567959121267599e-01  -9.7615124210332194e-01  1.0090934642691372e+00  4.8923156223780012e-01  7.9761505485332362e-01  9.6696917500342816e-01  7.0056460539322674e-01  2.7573429757237888e-01  -6.8138155721393823e-01  -9.9323135444327815e-01  1.0130169704672614e+00  3.3687768034633657e-02  2.0868569952216351e-01  1.9115836313078161e-01  -4.8554860414557993e-01  4.9444611148130707e-01  -2.0975419069695267e-01  -1.9136557529561998e-01  -5.5188392440265843e-01  1.9706359358785686e-01  -5.5359696144787418e-01  -5.5359696144787351e-01  -8.2949634073081735e-01  -1.9311705044440053e-01  1.9706359358785641e-01  -1.9311705044439909e-01  -8.2949634073081702e-01  9.8275855197495887e-01  -8.2949634073081691e-01  -9.7881200883150210e-01  -8.2949634073081702e-01  1.9706359358785619e-01  -1.9311705044439909e-01  -5.5359696144787351e-01  5.5754350459133040e-01  1.9706359358785686e-01  -1.9311705044440020e-01  9.8275855197495865e-01  8.3344288387427357e-01  -9.7881200883150221e-01  -9.7881200883150221e-01  5.5754350459132995e-01  5.5754350459133040e-01  -5.5359696144787396e-01  5.5754350459132995e-01  9.8275855197495865e-01  -5.5359696144787374e-01  5.5754350459133040e-01  8.3344288387427357e-01  -9.7881200883150232e-01  1.9706359358785619e-01  -5.5359696144787418e-01  -1.9311705044439986e-01  -1.9311705044439986e-01  -5.5359696144787374e-01  9.8275855197495865e-01  8.3344288387427379e-01  -9.7881200883150232e-01  -8.2949634073081735e-01  3.4505262202051590e-01  6.8961114775351240e-01  3.4548583366360058e-01  9.7551600863640353e-01  -8.3739304976973794e-01  2.1049068849647054e-01  3.3628722744257801e-02  8.8845524778595447e-02  4.8760672068568528e-01  -6.1056526764381136e-01  9.5158882518821442e-01  9.9927261741503148e-01  -2.6907493409213729e-01  -8.2732237700125799e-01  -9.8671391534337016e-01  -8.1574258983203229e-01  -5.5775475139953545e-01  8.4942488661201099e-01  9.8017428355453295e-01  8.1527798903597992e-01  5.2600329300284832e-01  7.5068549007694529e-01  -2.2449705480058532e-01  -1.7502798407262751e-01  -9.5760760680902124e-01  -6.2261320505492845e-01  -1.1235253208279572e-01  8.2198740303779094e-01  1.0104577470571052e+00  -9.7570842135150115e-01  8.7992962788856433e-01  -9.6015072717071803e-01  -8.9591503319723276e-01  7.3414068418248679e-01  -4.4371063276581768e-01  8.8087932223965038e-01  -4.5435360596367202e-01  3.9120537006109019e-01  9.7447050973768523e-01  9.0897075091624269e-01  -4.4412967098247202e-01  6.3106269219216082e-01  -6.1028435661303193e-01  4.2184805391188251e-01  1.0043261173838411e+00  -3.2578921205847056e-01  -5.1855110102119051e-01  -2.6481337544040306e-01  9.0648323653808693e-01  8.2900829598412107e-01  5.9406956480477713e-01  7.7650457593461486e-01  -5.3956061167046787e-01  9.4805188235887250e-01  -5.0238251091501485e-01  -5.8865801679736363e-01  -4.8454923649132686e-01  -1.1476129802361279e-01  8.1746301607545039e-03  3.1605010805071465e-01  -1.3825188591867241e-02  -1.0283634627775591e-01  -3.1198060742273964e-01  1.0102169248802702e+00  -9.7586537443569243e-01  -8.5904981227681099e-01  -7.7704129375150410e-01  9.9326455100232480e-01  -8.0013373945023281e-01  9.0712022384737989e-01  8.0988822246888503e-01  6.1059807607351946e-01  6.3917620427771360e-01  2.6389452570892441e-01  3.2657438955207940e-01  -3.7889466840079306e-01  9.7425347749809765e-01  -6.2599526229976621e-01  -1.2518744885432351e-01  3.7717721304885338e-01  9.5424957357786977e-01  6.0532825743940855e-01  -7.7144342510386077e-01  -4.4199611973996222e-01  9.2823273932577088e-01  9.3200277889502345e-02  7.0491546330048760e-01  -7.5698956565680298e-01  -7.3107185312762146e-01  9.5502947614210842e-01  -5.2130510940527441e-01  -4.6296300657741191e-01  1.5217958674032495e-02  -7.4995991015545638e-01  -8.2114159525851926e-01  -8.3703784301929307e-01  -8.2674499063818552e-01  -9.9483851496719522e-01  7.4988102743625262e-01  5.1114222058188730e-01  -9.8977367948540762e-01  9.6219601107586838e-01  3.4783162719793709e-01  -1.2442195023257160e-01  -9.1196557792167043e-01  -9.2599049076372369e-02  6.1551150211901817e-01  -9.8923118398884269e-01  -9.3902731413185481e-01  8.9564220945379791e-01  8.1420856613637627e-01  9.7161