<?xml version="1.0"?>
<VTKFile type="UnstructuredGrid"  version="0.1"  >
<UnstructuredGrid>
<Piece  NumberOfPoints="15681" NumberOfCells="30848">
<Points>
<DataArray  type="Float64"  NumberOfComponents="3"  format="ascii">0 1 0  0 0 0  1 0 0  1 1 0  0.5 0 0  1 0.5 0  0.5 1 0  0 0.5 0  0.5 0.5 0  0 0.25 0  0.25 0 0  0.25 1 0  0 0.75 0  1 0.25 0  0.75 0 0  1 0.75 0  0.75 1 0  0.7083333333333333 0.2916666666666667 0  0.2916666666666666 0.7083333333333334 0  0.375 0.25 0  0.75 0.625 0  0.2569444444444444 0.4652777777777778 0  0.5366379310344828 0.7535919540229885 0  0.1875 0.1875 0  0.8125 0.8125 0  0.869047619047619 0.375 0  0.1450441919191919 0.6052714646464646 0  0.375 0.8690476190476191 0  0.5526960784313725 0.1825980392156862 0  0.8385416666666666 0.1614583333333334 0  0.1614583333333333 0.8385416666666667 0  0.6736111111111112 0.4652777777777778 0  0.1367521367521368 0.3477564102564102 0  0.6570970491253563 0.8648656830417855 0  0.5102479397556124 0.3386260301221938 0  0.3654513888888889 0.5737847222222222 0  0.6929750044954185 0.1362784921584263 0  0.388576102743835 0.411911725237599 0  0.6091269841269842 0.5942460317460317 0  0.875 0.6875 0  0.427278890279516 0.119889445139758 0  0.8544456845238095 0.5213913690476191 0  0.125 0 0  0 0.125 0  1 0.875 0  0.875 1 0  0.1280008648150532 0.4769292340226777 0  0.2695382451711197 0.3321750950221553 0  0.7031567235715964 0.7447810921428012 0  0.625 0 0  0.375 0 0  0.125 1 0  0.875 0 0  0 0.375 0  0 0.625 0  1 0.375 0  0.375 1 0  1 0.125 0  0 0.875 0  0.625 1 0  1 0.625 0  0.2979288363930608 0.1201429454643536 0  0.410919540229885 0.7484605911330049 0  0.5325041980395562 0.878905151526474 0  0.4831670727569156 0.6331060043826487 0  0.1735997378973042 0.7204747378973043 0  0.2534919507575758 0.5772372159090909 0  0.2633928571428572 0.8876488095238095 0  0.8199404761904761 0.2730654761904762 0  0.75830270586982 0.3919383189517417 0  0.5750282248382511 0.4237522353023667 0  0.6008360210023379 0.2794828358598495 0  0.08163442644334186 0.6821295860397322 0  0.08333333333333333 0.1875 0  0.2028380815996574 0.08844602719988583 0  0.2766521142611967 0.2325436572164097 0  0.90625 0.78125 0  0.890625 0.890625 0  0.7545696325008384 0.8973565441669461 0  0.5625 0.08086590340834317 0  0.09077380952380953 0.09077380952380952 0  0.4610923478694773 0.209034015149656 0  0.7542527598351648 0.5248380520595106 0  0.6459235536037465 0.3619913988405765 0  0.7560381768882634 0.20506142233852 0  0.07073252688172042 0.8125 0  0.0924753097241701 0.9078102849914793 0  0.9292674731182795 0.1875 0  0.9075246902758297 0.09218971500852073 0  0.8125 0.07073252688172045 0  0.2400955776842301 0.7869705776842302 0  0.9121050213379069 0.2781978201831695 0  0.7916878157143976 0.7239689078571988 0  0.9345238095238094 0.4375 0  0.4375 0.9345238095238095 0  0.3725616989755203 0.6651895248862173 0  0.06536271996350887 0.5625 0  0.9348362560379583 0.5625 0  0.456646798987055 0.8277247094351965 0  0.1875 0.9355758238725954 0  0.6169761231634859 0.6939779188977889 0  0.6226854751147515 0.7827911461419014 0  0.3305695598137626 0.7901697871282585 0  0.5865305325818898 0.5101085479043448 0  0.6622701297028378 0.2177663989757395 0  0.1354166666666667 0.2591702279202279 0  0 0.3125 0  0.2094429575680048 0.3936361846162499 0  0.836666296419157 0.607917407161686 0  0.6875 1 0  0.214261555450504 0.6492551722020035 0  0 0.4375 0  0.07731537126068377 0.40625 0  0.3427725432967068 0.4879566233699599 0  0.3550792513951871 0.3331953632609953 0  0.4462473953896857 0.2887834789342508 0  0.4747801464819794 0.417386052030127 0  0.8229836475148948 0.4443292349237342 0  0.7322605135514757 0.8199240278289671 0  0.6756431877205955 0.5468989748126787 0  0.1968419507215863 0.5194573482612496 0  0.3285590277777778 0.9345238095238095 0  0.8125 1 0  0.4198917601920009 0.5134893045331258 0  0.5232405503206691 0.2595791787880157 0  1 0.9375 0  0.1987510870015086 0.3025185951894431 0  0.5625 1 0  0.6005390654136388 0.9228110509230952 0  0.6411254848194414 0.07704872765442942 0  0.3357233162523242 0.1855113224530532 0  0.6730653396610877 0.6393887462324165 0  0.310966987234063 0.6240019765311626 0  0.7368737836204349 0.07457755202327881 0  0.6192316414418171 0.1485238406378594 0  0.5432429670607106 0.678552703844006 0  0.4754371679695679 0.7103946803120881 0  0.07501324890749672 0.3043839897335739 0  0.5358146975860403 0.5688321463205916 0  0.3115271739500156 0.3982137365971444 0  0.3625191397122174 0.0767854603650549 0  0.5024029442563831 0.1264128223758444 0  0.4375 0 0  0.4699946908887376 0.06379961173775725 0  0.9375 0.71875 0  0.9272105898044465 0.635671179608893 0  0.9375 1 0  0.6690971819568612 0.9331530898202766 0  0.1073454944778885 0.7499206387638554 0  0.8699082999280406 0.2232403652524313 0  0.5773118091863964 0.3548027349159383 0  0.1354166666666667 0.1428571428571428 0  0.3125 0 0  0.8241684193077341 0.9257452995055244 0  0.4352314948354036 0.3586940847489378 0  0.4351301473778832 0.5819726043539077 0  0.8073232928518163 0.3419398170341962 0  0.7775949246947366 0.1298519409204575 0  0.6875 0 0  0.7413513991851041 0.457933324954483 0  0.939453125 0.841796875 0  0.5630355154606987 0.8171875156478349 0  0.9345238095238095 0.3461466592368577 0  0.9375 0 0  1 0.0625 0  0.0625 1 0  0 0.9375 0  0.06552178593177167 0.4969053669623468 0  0.1424866619031703 0.4130277709291224 0  0.1275287182444726 0.5422946908002588 0  0.2637686595586339 0.06413888464529549 0  0.2524263535491086 0.1697437503243817 0  0.7367218397988525 0.6888573970660841 0  0.0625 0 0  0 0.0625 0  0.8463594539285995 0.7578283617857982 0  0.3128751192101563 0.2851997374369947 0  0.4015281788351144 0.1806421385113692 0  0.1910251795116588 0.4553332197174453 0  0.287797471442006 0.5222621440543902 0  0.3962628745986055 0.8097380085535307 0  0.3505895299554843 0.7304878890838692 0  0.5019151500495276 0.9356042615328103 0  0.9374389419410134 0.4999931039076005 0  0.3125 1 0  0.1875 1 0  1 0.5625 0  0.4375 1 0  1 0.3125 0  1 0.4375 0  0.8125 0 0  1 0.1875 0  0.5625 0 0  0.1875 0 0  0 0.1875 0  0 0.5625 0  0 0.6875 0  0 0.8125 0  1 0.6875 0  1 0.8125 0  0.8021696218581627 0.6612893947866073 0  0.06154922295426143 0.6239401126946708 0  0.9359375 0.9359375 0  0.4666158024849896 0.7691515918155014 0  0.2318201265217025 0.7064974250277525 0  0.1565954253579966 0.6635489312486841 0  0.1598132503680848 0.7787147500325552 0  0.3146529991605639 0.8510876378205265 0  0.1461873209418733 0.05982804528877814 0  0.06109554988524315 0.2446551776247686 0  0.8054950308560754 0.5564226538848541 0  0.470541749491976 0.8853316336952531 0  0.6948472567465137 0.4042308563372457 0  0.8802828472348889 0.4658893256343853 0  0.6788075634946739 0.7974194205806069 0  0.2155048659603867 0.2428201584940968 0  0.8131223143423806 0.2132171049028394 0  0.4330798005432235 0.6671274900735726 0  0.6015279126162613 0.2187368078743274 0  0.8061636571464289 0.8703766630361714 0  0.7008230445061776 0.3478568388444072 0  0.8638466246958771 0.3147095987735538 0  0.204801534004265 0.8789209409594009 0  0.2449006736431132 0.9424182882803838 0  0.7611268409371427 0.2643056884799992 0  0.7552800864046191 0.7678006649959446 0  0.5983639638906616 0.864113435029236 0  0.1956559506814437 0.577281203577426 0  0.3527670268164207 0.1320469097565204 0  0.7530364577483248 0.3262386077083089 0  0.4535919187979363 0.4690107087451527 0  0.8824869791666666 0.8336588541666666 0  0.8814453125 0.9451171875 0  0.5582987942628019 0.622421666543858 0  0.6817532446064828 0.6939001801354731 0  0.3830295138888889 0.9450968952922078 0  0.4140603937012541 0.05211333372716105 0  0.5535864501303013 0.3060591985391672 0  0.6560130086346878 0.2729726562211558 0  0.890203140221684 0.5948314305427268 0  0.7043857725999024 0.593980890020804 0  0.5105843922695152 0.8016828014338627 0  0.05365910753708378 0.7315110031682004 0  0.616904573672261 0.4621186633436136 0  0.5338511646455415 0.387875898899613 0  0.5231769258947843 0.4477682463140762 0  0.650302973237622 0.7370722302085519 0  0.3927483139621257 0.4662414504529014 0  0.8034595960585199 0.4972538342758211 0  0.7738337841682438 0.9496376207663251 0  0.7193737507158268 0.954685447650112 0  0.482525916480686 0.5528257169991676 0  0.2533501157346781 0.2809495420003238 0  0.3118487924482243 0.5702930126570319 0  0.6257598847669529 0.4104163315430518 0  0.1354166666666667 0.1955605158730158 0  0.04166666666666666 0.15625 0  0.3956448985530264 0.6174149462065157 0  0.8102897701818546 0.3938784238208349 0  0.2641154190013625 0.8344469561943118 0  0.642852220770013 0.5068794586563659 0  0.05271458179508221 0.355846947336007 0  0.7021551360070266 0.8921457280225779 0  0.5692125776683765 0.1328512638850284 0  0.5206162811937602 0.04865158770992991 0  0.6001838442201555 0.04540556991297563 0  0.2597716608242787 0.4118346398477178 0  0.4040584599473195 0.3179589136784675 0  0.1480337679295207 0.8941560631483065 0  0.1344356707112281 0.9466251177415842 0  0.7114696411829317 0.4983917389078826 0  0.7585704698442475 0.5751926345944629 0  0.2189131956390871 0.04022068508159698 0  0.2476935455192043 0.1123642267635843 0  0.185995005654517 0.1365524537205238 0  0.6223414373308711 0.643380839165121 0  0.5732602596637543 0.7190051747306219 0  0.268358222364537 0.6586246524467934 0  0.3265879848129173 0.2369791782191225 0  0.1267095595787346 0.7034787238999181 0  0.1115202922226038 0.6421997933884982 0  0.3128688392940203 0.07260997451790079 0  0.550724900485678 0.9253360991633187 0  0.7142608810459105 0.2384904702214873 0  0.7045869185243887 0.1871826897887429 0  0.890625 0.734375 0  0.953125 0.765625 0  0.2111812642821677 0.8286209446459138 0  0.9590293078204457 0.09375 0  0.953431269039847 0.1435719386408004 0  0.04097069217955424 0.90625 0  0.04656873096015299 0.8564280613591996 0  0.1078743037981226 0.8541621766048062 0  0.8921256962018773 0.1458378233951939 0  0.8521576979194619 0.1084496634207678 0  0.8655663982740958 0.05464346096571447 0  0.04005659640905543 0.09375 0  0.1001448316533417 0.0424677624422826
[...]
<PointData  Scalars="f_76639"> 
<DataArray  type="Float64"  Name="f_76639"  format="ascii">1.5567207449798470e-01  1.5567207449798492e-01  1.5567207449798470e-01  1.5567207449798448e-01  1.5567207449798515e-01  1.5567207449798537e-01  1.5567207449798537e-01  1.5567207449798515e-01  1.6620760936869780e-01  1.1556720744979849e+00  1.1556720744979849e+00  1.1556720744979849e+00  -8.4432792550201508e-01  1.1556720744979849e+00  -8.4432792550201508e-01  -8.4432792550201508e-01  -8.4432792550201508e-01  1.6351037928850379e-01  1.6352467862024261e-01  -5.4340617802554347e-01  8.7056163287586497e-01  -8.2029004550605100e-01  1.1323210952890315e+00  8.6770008653754427e-01  -5.4669472289879351e-01  1.1603361923770483e+00  -8.3886579825513774e-01  1.1600506462356466e+00  -8.3330175753847813e-01  1.5968114115954435e-01  1.5966789107792351e-01  9.3133007344089702e-01  2.5810590204736861e-01  2.3235078739439478e-02  -6.4792781634951646e-01  -2.0707630544897673e-01  -7.1788308395006983e-01  -7.8451416202363022e-01  1.1226038743823397e+00  -2.2230226425637417e-01  -1.3131696569469567e-01  8.6472920768763206e-01  8.6277885568453239e-01  8.6277885568453239e-01  -5.5143470668856354e-01  -5.5143470668856354e-01  -4.5160627772498224e-01  -4.3284432935817124e-01  4.8446597815922288e-01  -5.5143470668856254e-01  8.6277885568453239e-01  8.6277885568453239e-01  -5.5143470668856276e-01  8.6277885568453239e-01  -5.5143470668856254e-01  8.6277885568453327e-01  8.6277885568453327e-01  8.6277885568453239e-01  -5.5143470668856276e-01  -5.5143470668856298e-01  -5.5143470668856298e-01  6.5248050094314303e-01  1.0059997983890057e+00  6.8892348392911285e-01  8.3272798065711040e-01  -4.5619722379601824e-01  -7.0997985033054933e-01  9.7272373994200478e-01  7.1321298538416267e-01  9.7359513778134177e-01  1.5817871781460827e-01  -5.1891852699922747e-01  -8.3733152357757656e-01  1.1495452368486401e+00  1.1251172037742252e+00  1.0477604897079837e-01  -7.6506838280132994e-01  -8.2298475637894641e-01  -6.5677653617465481e-01  -6.2448704714932746e-01  1.0665533331579893e+00  -7.1359731139683347e-01  1.1471159540640186e+00  2.1462767133501809e-01  -8.0358889580958562e-02  -5.1160384734234177e-01  1.5927911641533252e-01  8.2764629494703967e-01  1.5569314496984699e-01  -5.1155475835144282e-01  3.3095532026185653e-01  1.0896502902454797e+00  6.3780881186501812e-02  8.7886850905241576e-01  8.7905859962020882e-01  3.9983670808643629e-01  -5.6126585286633457e-01  1.7531287481325455e-01  1.1390688556797020e+00  8.5657940512286590e-01  1.0920879427866048e+00  7.2256509316167172e-01  8.5054130658704374e-01  7.3655942591592327e-01  -5.2166841249910967e-01  7.7542376481239750e-01  1.0795516070092717e+00  -4.4040173063109250e-01  5.0305408957309061e-01  -7.6820745801330148e-01  -5.9330588778294235e-01  5.3835550686307476e-01  2.6218411822185328e-01  -7.0901209669426102e-01  -7.6068100541016803e-01  -8.3100459078233924e-01  -4.6085915489574431e-01  1.1566606624288105e+00  -1.6066060593357065e-01  1.1502269208281879e+00  -8.1456009238811677e-01  1.1551411091282431e+00  -7.6820745801330181e-01  -2.4058162381742143e-01  -8.1462450431431288e-01  -2.2701135786710569e-01  1.5420003716463485e-01  -2.2701135786710491e-01  1.2834545406267103e-02  -8.2096283152566885e-01  2.9106417917228459e-02  1.0885481078871662e+00  -2.3277556581788436e-01  -7.6769859618049319e-01  -8.3222014393090127e-01  1.1495559773408672e+00  1.0843009196988984e+00  8.4605814992331063e-01  7.7717826099249543e-01  -8.0338121090025827e-01  5.3117714308913011e-01  -5.6300178652384802e-01  5.3835550686307476e-01  -5.2091664010234261e-02  -6.7342133957152139e-01  -2.2608881859440802e-01  -2.2701135786710569e-01  -4.4064925575867270e-01  -6.2212037129855458e-01  7.1218039474887151e-01  -2.4841080890395945e-01  1.1433432536792130e+00  1.0795516070092717e+00  -8.4222990547799559e-01  -7.9659372225393388e-01  2.7307531755330933e-01  9.6865175211536958e-01  -3.8936288462964480e-01  -7.6820745801330159e-01  1.1139901997098687e+00  -8.2341544864531080e-01  8.4598970115336070e-01  1.1399345098990217e+00  -2.2701135786710547e-01  5.3835550686307498e-01  5.3835550686307498e-01  -2.2701135786710547e-01  -2.2354378829849370e-01  -1.8044310422868404e-01  -7.1517530330836276e-01  1.0408579216762599e+00  6.3086960037346551e-01  6.1398217653986853e-01  5.3835550686307476e-01  5.3835550686307476e-01  -4.4831170295178963e-01  -4.1413878934351689e-01  -3.3112013671965496e-01  -6.3265894405679834e-01  -7.6506602720142669e-01  1.1246081184891601e+00  6.5155787103888141e-01  5.4111142044554061e-01  5.4169012230957159e-01  1.0795516070092717e+00  1.0795516070092714e+00  -2.2701135786710491e-01  5.3835550686307543e-01  1.0795516070092717e+00  5.3835550686307543e-01  -7.6820745801330170e-01  1.0795516070092714e+00  -2.2701135786710469e-01  1.0795516070092717e+00  1.0795516070092717e+00  -2.2701135786710469e-01  -7.6820745801330159e-01  -7.6820745801330170e-01  -7.6820745801330148e-01  -7.6820745801330181e-01  3.8996983169265731e-01  -7.6067965610058319e-01  -5.6427806297050509e-01  1.1596597124842036e+00  -2.1525875194941235e-01  -7.4299818308075682e-01  -2.1623028407267522e-01  1.0243446074175702e+00  1.1192887377394127e+00  1.0973801771868030e+00  9.2563148766973424e-01  9.4734419572712547e-01  7.4777166636772929e-01  9.8353227794303100e-01  3.1109313018650520e-01  4.2064588730868047e-01  3.2562507776387228e-01  7.5394158337135275e-01  -7.4072523944164048e-01  -7.3598066425264874e-01  4.6533188065133807e-01  1.0616425459866694e+00  6.6157353732157720e-01  1.0815493646287928e+00  3.2156622466169593e-01  1.7474004227168317e-02  3.9466173695805318e-01  -8.2687133287283920e-01  2.5612801519202683e-01  6.4106964739747518e-01  -3.0116022237069956e-01  -8.1858613219528686e-01  -7.2961863595611753e-01  1.0724747050687027e+00  8.6817559747175488e-01  1.0401153169600565e+00  3.6903828254554771e-01  -6.0689922564968912e-01  -2.6782494917812860e-01  2.5408378342259075e-01  1.1186103897860222e+00  1.0873097521239605e+00  -8.1813334912200475e-01  6.4210166515002076e-01  -3.0651874918232819e-01  -1.5399590487766424e-02  8.1382176465610823e-01  -6.0876025056668459e-01  1.1124483435612631e+00  -8.2862826057013228e-01  -7.3092732763120083e-01  3.8641160060696778e-01  -5.0980870012324007e-02  -5.0977189553875468e-01  3.9082620326051054e-01  1.0332475251104820e+00  1.1037495962132888e+00  2.4738140099756573e-01  1.1213581551018108e+00  7.4157205728259945e-01  9.7358692781495648e-01  7.0147894478703965e-01  -3.9882751543203893e-01  -7.9371517996404906e-01  -2.6359221158532170e-01  -6.3480277689515685e-01  -7.1707478718428419e-01  -8.1971322365998955e-01  4.2052556268547475e-01  6.4487619076068636e-01  1.1329093743181222e+00  1.0282765321888572e+00  1.1555227627985432e+00  9.2961228819378672e-01  1.0573604754114194e+00  1.1601268920772361e+00  1.1293264828422305e+00  -2.7925067721598618e-01  -2.2579002716495222e-01  -7.1513083732980065e-01  -8.3963366359916936e-01  8.1782530225955186e-01  3.0880486702780319e-01  -1.2980847585449684e-01  -4.6695878335011304e-01  -5.4742997073390265e-01  -8.2341305326614622e-01  4.0807045952525417e-01  4.8221417474640904e-01  7.2961728061580489e-01  -1.6899338283853588e-01  -4.1541340890186468e-01  -7.7756512175992304e-02  3.9478735919572577e-01  -8.6537279176002499e-02  -3.2346075515487582e-01  9.0177916430851091e-01  9.3758177908342910e-01  5.9913362347157301e-02  4.2286719824019714e-01  1.0930590988686406e+00  6.9727278564871165e-01  -8.2689390269515395e-01  -7.4066021744439847e-01  -4.7474984380493590e-01  -6.1704686347036264e-01  -3.6278718005922767e-01  1.1651577900165908e+00  -8.3410899044902720e-01  1.1467546744787660e+00  1.0771050122579942e+00  -7.5872467012880418e-01  -7.5809991336175275e-01  1.1570674065221591e+00  -6.8029930755402834e-01  -8.3706777267072541e-02  4.5582501306061940e-01  -2.0115522687118717e-01  8.3294991530522583e-02  -7.1020644794858834e-01  1.0229950858995183e+00  -4.7730104845667237e-01  -6.3458068327537795e-02  7.4079066735559462e-01  2.9608959350483965e-01  9.1536811914734928e-01  8.5052227326759500e-01  1.0932442976040546e+00  9.8429535530657486e-01  -8.6502145362423760e-02  9.8373773125648223e-01  1.0756609450587173e+00  -8.0046328433646485e-01  -8.3622441208505027e-01  -1.4777468075066262e-02  -2.6046776913361991e-01  9.6680807786379264e-01  -4.9163714983856133e-02  9.4236796124646705e-01  1.0745408404262837e+00  5.4844442282175521e-01  -7.6559330210138166e-01  -2.3371215615062951e-01  -2.1772811950530188e-01  5.8211209652389240e-01  -8.2368687322815959e-01  -7.7267472672450932e-01  5.8288903505668559e-02  -5.0916781977778047e-01  -8.4266526709694323e-01  -5.4379916670997608e-01  4.2929098353972234e-01  3.7582302101404874e-01  1.1573916528961725e+00  -5.3981148894106989e-01  7.7676232395784306e-01  1.0326240870420484e+00  6.1258779623307691e-01  -7.6701494576624951e-01  1.5654954023192547e-01  1.5744055942240315e-01  5.5704820446213366e-01  1.5744500116210955e-01  1.5617172451781478e-01  -2.4425419140596610e-01  6.7479382887552974e-01  7.6149237193712471e-01  -8.1233304508447224e-01  -7.6781838788985324e-01  -3.7337906151234806e-02  5.5479165973270361e-01  -5.4537873289601668e-01  -8.2200141265022275e-01  1.1637741554946217e+00  -6.0014479695388312e-01  1.1569814837739139e+00  -6.3998539841088020e-01  -2.1769193075315516e-01  -5.0372881490046706e-01  -6.0864205456113984e-01  -6.2938354335493374e-01  -8.3422217724671865e-01  7.0987849640000311e-01  1.1533454558210845e+00  9.4526642112362036e-01  5.4759474732761970e-01  1.1237961581897693e+00  -3.6949316986573791e-02  2.7287346206368562e-01  -8.2305896008838253e-01  -8.3258725862090832e-01  -7.9265702457789700e-01  1.1491923958779868e+00  3.9645728614899861e-01  -8.3165080886320564e-01  -6.8872945655490636e-01  9.4872416491638889e-01  -4.1501998725925726e-01  1.1569819163041950e+00  5.7339451157581700e-01  1.1326906966297476e+00  1.1596888734365234e+00  8.7633361001564014e-01  1.0561972454864696e+00  -3.3376471523621715e-01  -5.7563866729444557e-01  -2.0103449424783021e-01  -3.9418247518143823e-02  -5.3983546428346429e-01  -7.8119194259565850e-01  4.6179144008986472e-01  1.1602415953423513e+00  4.8793885785413071e-01  -4.7237782655052790e-01  -6.9532363963214250e-01  1.1364573549012154e+00  9.1743319149035085e-01  -2.4378534070388602e-02  -1.6685638566792907e-01  1.1379008687421808e+00  -7.9504737619213317e-01  -7.4909656146895098e-01  2.9977456499131161e-01  3.5936317242606312e-02  -6.7346340584156239e-01  -8.2551766389670744e-01  8.5294143438091052e-02  9.6831100534883441e-01  8.9913443792169634e-01  -3.0673445072572225e-01  1.6188545443714583e-01  1.1364573549012154e+00  5.0500599549157488e-01  5.7812802823425946e-01  1.1262344977643368e+00  1.0656522847072283e+00  -4.8803723766009299e-01  7.1493760292047959e-01  -4.3241867139676293e-01  1.0236178173153463e+00  9.5131103016095064e-01  -8.2960710173635954e-01  -8.3945360337328156e-01  -7.3331672912965051e-01  -6.8294280506050165e-01  -5.1922450549466359e-01  -6.5951959784947745e-01  1.0665880365164573e+00  -7.1110169695243231e-01  1.7894246207273534e-01  -3.9989815852161725e-01  9.4921006645589423e-01  2.3965044263034380e-01  3.5661793622648547e-01  -3.0647157375701573e-01  -8.4118089625341430e-01  1.1560699331870419e+00  7.1124230751758710e-01  4.2172441290558643e-01  9.8737229866972073e-02  9.3239519775449942e-01  -5.4531094993825013e-01  -4.9350226888073828e-01  -8.1422701945907239e-01  1.1436292252955400e+00  -1.9043317317425226e-01  -6.7579753780456053e-01  -5.8133895718551076e-01  -7.6188070455277745e-01  -6.2611118613087025e-01  -2.8662844510934393e-01  3.4259249244754730e-01  -2.7553302709036792e-01  -7.4917478757318900e-01  1.1588094602840662e+00  1.1637583967170393e+00  1.0319507242226107e+00  1.1553888229051275e+00  9.8714168680053027e-01  -8.3117943636977132e-01  -7.9779283670237844e-01  9.1972563996870826e-01  -7.8662797408786800e-01  -6.7579753780456020e-01  -8.3763636022337762e-01  4.1034656728839207e-02  -8.2404535280037161e-01  8.6145374040799638e-01  7.0654503145065151e-01  -5.0478250573923555e-01  9.1757487279908984e-02  2.8004372095079760e-01  7.2538037192656640e-02  9.8714168680053049e-01  -2.9361409215614729e-02  1.1634109714137273e+00  -4.2708300376070513e-01  -7.0038725746989239e-01  -7.3295847073775910e-01  4.0836718617223466e-01  6.8590501882399502e-01  -2.0824215642621860e-01  9.8714168680053027e-01  1.1364573549012154e+00  1.0266324308880035e+00  8.4686350916308373e-01  6.2345422065638412e-01  -7.7837314303991600e-01  -5.3361164093379765e-01  7.5958331753920416e-01  -8.3672516589071355e-01  -1.1090891551793489e-01  8.6279107484048878e-01  -4.4712158188897727e-01  1.1626656156942099e+00  -8.2511320590524539e-01  9.1289083854387845e-02  9.2590529029604018e-01  1.0436244721716235e+00  2.6899382927000004e-01  5.6136446804400997e-01  2.5419364320618354e-01  1.1531637267592099e+00  1.0714604462358936e+00  6.2698994723708124e-01  9.6403310663771702e-01  9.5326926121332400e-01  6.1864514985727881e-01  3.2462350835322515e-03  -6.6169164432419225e-01  -3.1753157269766474e-01  6.7391022862123517e-01  1.9040071759081838e-02  -7.6520708752559763e-01  5.2341652676648098e-01  1.1364573549012156e+00  1.1134251409987621e+00  9.1319341277582544e-01  9.8801034455477854e-01  -7.5589748891832309e-01  -7.9993321382504723e-01  -7.2355967771018759e-01  -6.7504020490076244e-01  3.5076239651411312e-01  1.1005539596081593e+00  -2.1800647942125692e-01  -4.3845947238652727e-01  5.0531177055716014e-01  -6.5169000328011961e-01  -2.1247139563919268e-01  6.0900053923118445e-02  -1.0187763115813550e-01  1.0609937414222594e+00  -7.2450166201992472e-01  -8.3593721880162875e-01  -4.4371867962861339e-01  -9.4658090110710802e-02  4.5143499830121375e-01  -1.3618541043260959e-01  1.0307345445279075e+00  7.5553556284908108e-01  -4.7185840354283477e-02  3.3127284034420490e-01  1.0489465951456696e+00  1.0470594561067375e+00  1.1470225266057879e+00  1.1511753523838317e+00  1.0871107654132810e+00  2.5619662107832392e-01  1.0308813879051639e+00  9.8714168680053027e-01  3.9378660759817996e-01  1.1526382781097553e+00  1.2430508702865725e-01  -2.7279767055057352e-01  -4.7658986131802483e-01  6.5400515319770891e-01  -4.8248643846766343e-01  1.1450022470152117e+00  -6.3197427105461856e-01  -8.1284255928728033e-01  5.8929745556776481e-01  -7.3877266964082600e-01  1.0908288543862101e+00  7.6623527132843749e-01  1.0410848145663476e+00  5.5149084621871358e-01  -2.8427652297169065e-01  -8.2511320590524573e-01  1.0212483281243123e+00  4.2406227921158435e-01  1.0621381982488105e-01  -7.7795880734666045e-01  9.5679035000837986e-01  -6.4390133496927038e-01  -2.8885097615382982e-01  -5.5267851669408896e-01  3.8036548236070683e-01  7.9961502879761204e-01  -5.9129260703278219e-01  1.1045790141091960e+00  1.1335338098284875e+00  8.6885528305180448e-01  7.3652693183540907e-01  7.1124230751758710e-01  6.5807929545299815e-01  -7.0547067534522612e-02  -8.0916100274244007e-01  2.0527851954012671e-01  1.0625281459541112e+00  6.3090131517130144e-01  7.7829250836949493e-01  7.1124230751758710e-01  7.6929543262982070e-01  -6.2218377584709383e-01  -8.3745498479013891e-01  -7.1478596674851846e-01  -8.2765040844797122e-01  -1.8812585577258589e-01  -4.4572166859545015e-01  7.2422149816253156e-01  5.7521077717542790e-01  3.5076239651411312e-01  3.5076239651411312e-01  -5.3600601521537627e-01  -3.9418247518143490e-02  -7.2914126550502822e-01  9.1222935732512167e-01  9.8714168680053027e-01  -6.7579753780456053e-01  -1.2271231039106244e-01  -3.2908084628856049e-01  -1.4617627181600173e-01  -8.3202819244568738e-01  -6.7356422597524634e-01  9.2028126965300017e-01  4.5242813135396232e-01  -8.2511320590524573e-01  1.0082037275420188e+00  1.0786799024785423e+00  3.2782195934466596e-01  1.1135061531368957e+00  -3.5041787885476022e-01  -8.1272548583043513e-01  -8.2374149288891307e-01  1.1615990826291900e+00  6.4202989478435657e-01  9.5024977403910149e-01  1.1197564657966528e+00  8.5280082284453174e-01  4.2801970643626108e-01  -5.2848314398819951e-01  -8.3989918931919960e-01  1.1649570881075071e+00  1.8612118305961622e-01  3.6188302090512547e-01  3.4459817703547319e-01  -3.3220307944938393e-01  6.4779180583558515e-01  -5.6338798378175729e-02  -3.7922520952009313e-02  -3.9843181128952504e-01  3.5076239651411356e-01  -3.9989815852161748e-01  -3.9989815852161681e-01  -6.7579753780456064e-01  -3.9418247518143823e-02  3.5076239651411312e-01  -3.9418247518142380e-02  -6.7579753780456031e-01  1.1364573549012156e+00  -6.7579753780456020e-01  -8.2511320590524539e-01  -6.7579753780456031e-01  3.5076239651411290e-01  -3.9418247518142380e-02  -3.9989815852161681e-01  7.1124230751758710e-01  3.5076239651411356e-01  -3.9418247518143490e-02  1.1364573549012154e+00  9.8714168680053027e-01  -8.2511320590524551e-01  -8.2511320590524551e-01  7.1124230751758666e-01  7.1124230751758710e-01  -3.9989815852161725e-01  7.1124230751758666e-01  1.1364573549012154e+00  -3.9989815852161703e-01  7.1124230751758710e-01  9.8714168680053027e-01  -8.2511320590524562e-01  3.5076239651411290e-01  -3.9989815852161748e-01  -3.9418247518143157e-02  -3.9418247518143157e-02  -3.9989815852161703e-01  1.1364573549012154e+00  9.8714168680053049e-01  -8.2511320590524562e-01  -6.7579753780456064e-01  4.9750378452192490e-01  8.4243502740746756e-01  4.9743318462941333e-01  1.1289841506672200e+00  -6.8515546546831629e-01  3.6391407152978439e-01  1.8619218250007963e-01  2.4141828751159494e-01  6.4037121603968838e-01  -4.5750443744902752e-01  1.1051387858882236e+00  1.1527789385187623e+00  -1.1605768882249995e-01  -6.7411057155863641e-01  -8.3358891542266322e-01  -6.6228735431392405e-01  -4.0455840761555217e-01  1.0026955241055919e+00  1.1334676592929738e+00  9.6826226492521927e-01  6.7840537355628150e-01  9.0346196986508209e-01  -7.2039993326239005e-02  -2.1609886686525342e-02  -8.0458641315885215e-01  -4.7085442804793942e-01  4.0410856009693782e-02  9.7378390455005370e-01  1.1624740768143538e+00  -8.2326066574633383e-01  1.0324190064956755e+00  -8.0806803625244428e-01  -7.4404551659447049e-01  8.8760539788899595e-01  -2.9082941532662698e-01  1.0339755642565500e+00  -3.0192276012311398e-01  5.4334994647710710e-01  1.1272807729975440e+00  1.0619520367161852e+00  -2.9212856937758513e-01  7.8304300573896968e-01  -4.5800031871733654e-01  5.7445657563535213e-01  1.1563517958077740e+00  -1.7277341804775434e-01  -3.6615303455696274e-01  -1.1246870704901825e-01  1.0587878628452858e+00  9.8151519183990465e-01  7.4657519275499684e-01  9.2938798628642161e-01  -3.8610921356521005e-01  1.1005522557362653e+00  -3.4977983444415328e-01  -4.3567734955664228e-01  -3.3173956354441247e-01  3.8485518304906825e-02  1.6002345771733384e-01  4.6856807869602274e-01  1.3860815580994765e-01  4.9733502670016479e-02  -1.5883771603008695e-01  1.1626175866187294e+00  -8.2310284572287451e-01  -7.0647379749878758e-01  -6.2431553522344352e-01  1.1459199571901988e+00  -6.4832547079586467e-01  1.0594680140636599e+00  9.6287842037215410e-01  7.6361664276045704e-01  7.9238967436445118e-01  4.1690751820828220e-01  4.7971340856348188e-01  -2.2576078111772344e-01  1.1261338354946084e+00  -4.7363193597898134e-01  2.7787535409844109e-02  5.2970081417865300e-01  1.1077374454749878e+00  7.5735944029138669e-01  -6.1933896529583143e-01  -2.8898980753513998e-01  1.0801155914916500e+00  2.4596016237983540e-01  8.5786029833937505e-01  -6.0481604970185643e-01  -5.7783446144087802e-01  1.1073613423267816e+00  -3.6945622496470965e-01  -3.0992496931554309e-01  1.6786286882350326e-01  -5.9687599594983687e-01  -6.6769260762285643e-01  -6.8403562713147237e-01  -6.7369223184034410e-01  -8.4133701427138541e-01  9.0267663651205576e-01  6.6471456038493626e-01  -8.3718439933609923e-01  1.1140942556120399e+00  4.9956237457784458e-01  2.8090084614690078e-02  -7.5940523323970799e-01  6.0046046477703591e-02  7.6740240965985795e-01  -8.3680801881920286e-01  -7.8670575816179911e-01  1.0488230318071079e+00  9.6751853638797936e-01  1.1251299612219137e+00  -8.3286579