<?xml version="1.0"?>
<VTKFile type="UnstructuredGrid"  version="0.1"  >
<UnstructuredGrid>
<Piece  NumberOfPoints="15681" NumberOfCells="30848">
<Points>
<DataArray  type="Float64"  NumberOfComponents="3"  format="ascii">0 1 0  0 0 0  1 0 0  1 1 0  0.5 0 0  1 0.5 0  0.5 1 0  0 0.5 0  0.5 0.5 0  0 0.25 0  0.25 0 0  0.25 1 0  0 0.75 0  1 0.25 0  0.75 0 0  1 0.75 0  0.75 1 0  0.7083333333333333 0.2916666666666667 0  0.2916666666666666 0.7083333333333334 0  0.375 0.25 0  0.75 0.625 0  0.2569444444444444 0.4652777777777778 0  0.5366379310344828 0.7535919540229885 0  0.1875 0.1875 0  0.8125 0.8125 0  0.869047619047619 0.375 0  0.1450441919191919 0.6052714646464646 0  0.375 0.8690476190476191 0  0.5526960784313725 0.1825980392156862 0  0.8385416666666666 0.1614583333333334 0  0.1614583333333333 0.8385416666666667 0  0.6736111111111112 0.4652777777777778 0  0.1367521367521368 0.3477564102564102 0  0.6570970491253563 0.8648656830417855 0  0.5102479397556124 0.3386260301221938 0  0.3654513888888889 0.5737847222222222 0  0.6929750044954185 0.1362784921584263 0  0.388576102743835 0.411911725237599 0  0.6091269841269842 0.5942460317460317 0  0.875 0.6875 0  0.427278890279516 0.119889445139758 0  0.8544456845238095 0.5213913690476191 0  0.125 0 0  0 0.125 0  1 0.875 0  0.875 1 0  0.1280008648150532 0.4769292340226777 0  0.2695382451711197 0.3321750950221553 0  0.7031567235715964 0.7447810921428012 0  0.625 0 0  0.375 0 0  0.125 1 0  0.875 0 0  0 0.375 0  0 0.625 0  1 0.375 0  0.375 1 0  1 0.125 0  0 0.875 0  0.625 1 0  1 0.625 0  0.2979288363930608 0.1201429454643536 0  0.410919540229885 0.7484605911330049 0  0.5325041980395562 0.878905151526474 0  0.4831670727569156 0.6331060043826487 0  0.1735997378973042 0.7204747378973043 0  0.2534919507575758 0.5772372159090909 0  0.2633928571428572 0.8876488095238095 0  0.8199404761904761 0.2730654761904762 0  0.75830270586982 0.3919383189517417 0  0.5750282248382511 0.4237522353023667 0  0.6008360210023379 0.2794828358598495 0  0.08163442644334186 0.6821295860397322 0  0.08333333333333333 0.1875 0  0.2028380815996574 0.08844602719988583 0  0.2766521142611967 0.2325436572164097 0  0.90625 0.78125 0  0.890625 0.890625 0  0.7545696325008384 0.8973565441669461 0  0.5625 0.08086590340834317 0  0.09077380952380953 0.09077380952380952 0  0.4610923478694773 0.209034015149656 0  0.7542527598351648 0.5248380520595106 0  0.6459235536037465 0.3619913988405765 0  0.7560381768882634 0.20506142233852 0  0.07073252688172042 0.8125 0  0.0924753097241701 0.9078102849914793 0  0.9292674731182795 0.1875 0  0.9075246902758297 0.09218971500852073 0  0.8125 0.07073252688172045 0  0.2400955776842301 0.7869705776842302 0  0.9121050213379069 0.2781978201831695 0  0.7916878157143976 0.7239689078571988 0  0.9345238095238094 0.4375 0  0.4375 0.9345238095238095 0  0.3725616989755203 0.6651895248862173 0  0.06536271996350887 0.5625 0  0.9348362560379583 0.5625 0  0.456646798987055 0.8277247094351965 0  0.1875 0.9355758238725954 0  0.6169761231634859 0.6939779188977889 0  0.6226854751147515 0.7827911461419014 0  0.3305695598137626 0.7901697871282585 0  0.5865305325818898 0.5101085479043448 0  0.6622701297028378 0.2177663989757395 0  0.1354166666666667 0.2591702279202279 0  0 0.3125 0  0.2094429575680048 0.3936361846162499 0  0.836666296419157 0.607917407161686 0  0.6875 1 0  0.214261555450504 0.6492551722020035 0  0 0.4375 0  0.07731537126068377 0.40625 0  0.3427725432967068 0.4879566233699599 0  0.3550792513951871 0.3331953632609953 0  0.4462473953896857 0.2887834789342508 0  0.4747801464819794 0.417386052030127 0  0.8229836475148948 0.4443292349237342 0  0.7322605135514757 0.8199240278289671 0  0.6756431877205955 0.5468989748126787 0  0.1968419507215863 0.5194573482612496 0  0.3285590277777778 0.9345238095238095 0  0.8125 1 0  0.4198917601920009 0.5134893045331258 0  0.5232405503206691 0.2595791787880157 0  1 0.9375 0  0.1987510870015086 0.3025185951894431 0  0.5625 1 0  0.6005390654136388 0.9228110509230952 0  0.6411254848194414 0.07704872765442942 0  0.3357233162523242 0.1855113224530532 0  0.6730653396610877 0.6393887462324165 0  0.310966987234063 0.6240019765311626 0  0.7368737836204349 0.07457755202327881 0  0.6192316414418171 0.1485238406378594 0  0.5432429670607106 0.678552703844006 0  0.4754371679695679 0.7103946803120881 0  0.07501324890749672 0.3043839897335739 0  0.5358146975860403 0.5688321463205916 0  0.3115271739500156 0.3982137365971444 0  0.3625191397122174 0.0767854603650549 0  0.5024029442563831 0.1264128223758444 0  0.4375 0 0  0.4699946908887376 0.06379961173775725 0  0.9375 0.71875 0  0.9272105898044465 0.635671179608893 0  0.9375 1 0  0.6690971819568612 0.9331530898202766 0  0.1073454944778885 0.7499206387638554 0  0.8699082999280406 0.2232403652524313 0  0.5773118091863964 0.3548027349159383 0  0.1354166666666667 0.1428571428571428 0  0.3125 0 0  0.8241684193077341 0.9257452995055244 0  0.4352314948354036 0.3586940847489378 0  0.4351301473778832 0.5819726043539077 0  0.8073232928518163 0.3419398170341962 0  0.7775949246947366 0.1298519409204575 0  0.6875 0 0  0.7413513991851041 0.457933324954483 0  0.939453125 0.841796875 0  0.5630355154606987 0.8171875156478349 0  0.9345238095238095 0.3461466592368577 0  0.9375 0 0  1 0.0625 0  0.0625 1 0  0 0.9375 0  0.06552178593177167 0.4969053669623468 0  0.1424866619031703 0.4130277709291224 0  0.1275287182444726 0.5422946908002588 0  0.2637686595586339 0.06413888464529549 0  0.2524263535491086 0.1697437503243817 0  0.7367218397988525 0.6888573970660841 0  0.0625 0 0  0 0.0625 0  0.8463594539285995 0.7578283617857982 0  0.3128751192101563 0.2851997374369947 0  0.4015281788351144 0.1806421385113692 0  0.1910251795116588 0.4553332197174453 0  0.287797471442006 0.5222621440543902 0  0.3962628745986055 0.8097380085535307 0  0.3505895299554843 0.7304878890838692 0  0.5019151500495276 0.9356042615328103 0  0.9374389419410134 0.4999931039076005 0  0.3125 1 0  0.1875 1 0  1 0.5625 0  0.4375 1 0  1 0.3125 0  1 0.4375 0  0.8125 0 0  1 0.1875 0  0.5625 0 0  0.1875 0 0  0 0.1875 0  0 0.5625 0  0 0.6875 0  0 0.8125 0  1 0.6875 0  1 0.8125 0  0.8021696218581627 0.6612893947866073 0  0.06154922295426143 0.6239401126946708 0  0.9359375 0.9359375 0  0.4666158024849896 0.7691515918155014 0  0.2318201265217025 0.7064974250277525 0  0.1565954253579966 0.6635489312486841 0  0.1598132503680848 0.7787147500325552 0  0.3146529991605639 0.8510876378205265 0  0.1461873209418733 0.05982804528877814 0  0.06109554988524315 0.2446551776247686 0  0.8054950308560754 0.5564226538848541 0  0.470541749491976 0.8853316336952531 0  0.6948472567465137 0.4042308563372457 0  0.8802828472348889 0.4658893256343853 0  0.6788075634946739 0.7974194205806069 0  0.2155048659603867 0.2428201584940968 0  0.8131223143423806 0.2132171049028394 0  0.4330798005432235 0.6671274900735726 0  0.6015279126162613 0.2187368078743274 0  0.8061636571464289 0.8703766630361714 0  0.7008230445061776 0.3478568388444072 0  0.8638466246958771 0.3147095987735538 0  0.204801534004265 0.8789209409594009 0  0.2449006736431132 0.9424182882803838 0  0.7611268409371427 0.2643056884799992 0  0.7552800864046191 0.7678006649959446 0  0.5983639638906616 0.864113435029236 0  0.1956559506814437 0.577281203577426 0  0.3527670268164207 0.1320469097565204 0  0.7530364577483248 0.3262386077083089 0  0.4535919187979363 0.4690107087451527 0  0.8824869791666666 0.8336588541666666 0  0.8814453125 0.9451171875 0  0.5582987942628019 0.622421666543858 0  0.6817532446064828 0.6939001801354731 0  0.3830295138888889 0.9450968952922078 0  0.4140603937012541 0.05211333372716105 0  0.5535864501303013 0.3060591985391672 0  0.6560130086346878 0.2729726562211558 0  0.890203140221684 0.5948314305427268 0  0.7043857725999024 0.593980890020804 0  0.5105843922695152 0.8016828014338627 0  0.05365910753708378 0.7315110031682004 0  0.616904573672261 0.4621186633436136 0  0.5338511646455415 0.387875898899613 0  0.5231769258947843 0.4477682463140762 0  0.650302973237622 0.7370722302085519 0  0.3927483139621257 0.4662414504529014 0  0.8034595960585199 0.4972538342758211 0  0.7738337841682438 0.9496376207663251 0  0.7193737507158268 0.954685447650112 0  0.482525916480686 0.5528257169991676 0  0.2533501157346781 0.2809495420003238 0  0.3118487924482243 0.5702930126570319 0  0.6257598847669529 0.4104163315430518 0  0.1354166666666667 0.1955605158730158 0  0.04166666666666666 0.15625 0  0.3956448985530264 0.6174149462065157 0  0.8102897701818546 0.3938784238208349 0  0.2641154190013625 0.8344469561943118 0  0.642852220770013 0.5068794586563659 0  0.05271458179508221 0.355846947336007 0  0.7021551360070266 0.8921457280225779 0  0.5692125776683765 0.1328512638850284 0  0.5206162811937602 0.04865158770992991 0  0.6001838442201555 0.04540556991297563 0  0.2597716608242787 0.4118346398477178 0  0.4040584599473195 0.3179589136784675 0  0.1480337679295207 0.8941560631483065 0  0.1344356707112281 0.9466251177415842 0  0.7114696411829317 0.4983917389078826 0  0.7585704698442475 0.5751926345944629 0  0.2189131956390871 0.04022068508159698 0  0.2476935455192043 0.1123642267635843 0  0.185995005654517 0.1365524537205238 0  0.6223414373308711 0.643380839165121 0  0.5732602596637543 0.7190051747306219 0  0.268358222364537 0.6586246524467934 0  0.3265879848129173 0.2369791782191225 0  0.1267095595787346 0.7034787238999181 0  0.1115202922226038 0.6421997933884982 0  0.3128688392940203 0.07260997451790079 0  0.550724900485678 0.9253360991633187 0  0.7142608810459105 0.2384904702214873 0  0.7045869185243887 0.1871826897887429 0  0.890625 0.734375 0  0.953125 0.765625 0  0.2111812642821677 0.8286209446459138 0  0.9590293078204457 0.09375 0  0.953431269039847 0.1435719386408004 0  0.04097069217955424 0.90625 0  0.04656873096015299 0.8564280613591996 0  0.1078743037981226 0.8541621766048062 0  0.8921256962018773 0.1458378233951939 0  0.8521576979194619 0.1084496634207678 0  0.8655663982740958 0.05464346096571447 0  0.04005659640905543 0.09375 0  0.1001448316533417 0.0424677624422826
[...]
<PointData  Scalars="f_18276"> 
<DataArray  type="Float64"  Name="f_18276"  format="ascii">-8.4432792550201352e-01  -8.4432792550201352e-01  -8.4432792550201352e-01  -8.4432792550201352e-01  -8.4432792550201352e-01  1.1556720744979865e+00  1.1556720744979865e+00  -8.4432792550201352e-01  4.3538927581573150e-01  -8.4432792550201352e-01  -8.4432792550201352e-01  1.5567207449798642e-01  -8.4432792550201352e-01  1.5567207449798642e-01  -8.4432792550201352e-01  1.5567207449798667e-01  1.5567207449798667e-01  1.4963627981903621e-02  1.4467324885461720e-02  -5.9376313078191711e-01  1.2180203535738305e+00  -4.6462802856539015e-01  1.0770377873868824e+00  -8.1554968817502271e-01  6.9218043533182549e-01  6.9678812227928488e-01  -6.1275375289012612e-01  6.9621710390056368e-01  -5.6459787059692224e-01  -4.8996052073419688e-01  -4.8717317528758525e-01  7.3755261892803670e-01  -7.4479146840459476e-01  1.1212776157824331e+00  -1.2872670291339677e-01  1.1035424805991342e-01  -6.0813574463206033e-01  -1.4346448041077486e-01  1.0384807297023544e+00  1.0130799950993066e+00  -7.2045359597743230e-01  1.1948709305238570e+00  -8.4432792550201352e-01  -8.4432792550201352e-01  -5.5143470668856087e-01  -5.5143470668856087e-01  -6.8346643500622062e-01  -5.9233426771478037e-01  1.2249553097904169e+00  -8.4432792550201352e-01  -8.4432792550201352e-01  -5.5143470668856109e-01  -8.4432792550201352e-01  -8.4432792550201352e-01  -8.4432792550201352e-01  8.6277885568453394e-01  8.6277885568453394e-01  -5.5143470668856109e-01  -8.4432792550201352e-01  8.6277885568453416e-01  8.6277885568453416e-01  -7.5802813819712012e-01  6.0438197918488556e-01  1.2207387174722879e+00  7.1847444433522023e-01  -5.0159920916200407e-01  -3.5178462057059179e-01  9.0461173221674490e-02  2.9904530247238926e-02  5.2960397143936899e-01  3.6476337323572966e-01  -2.0993016192481900e-01  -7.5039160771920976e-01  -8.2980366328566257e-01  -8.3133549585556377e-01  -7.3371950028766975e-01  4.2870113469498028e-01  -1.0045798685082598e-01  6.1388764783615968e-01  -7.5178259373855327e-01  -8.3286504822707175e-01  -5.7478966476789173e-01  1.0470982125831660e+00  2.2352719240899330e-01  -4.1268229410165680e-01  -7.7258103694954994e-01  -6.9816634966478253e-01  -2.9323300449072537e-01  -7.0028005477156396e-01  -7.7134370892463822e-01  -2.3049562379974303e-01  2.1448880663193745e-01  1.0818358587121315e+00  1.0397200742139161e+00  1.0390912722474217e+00  3.2298479857837487e-01  -7.7404429998357871e-01  1.1856074754176138e+00  9.7330672207864943e-01  -2.8901925752612068e-01  1.2211727787349769e+00  1.2268889658698614e+00  2.8164985609159138e-01  7.2756764787174699e-01  -4.0760662195223424e-01  -7.8313343426169257e-01  -8.4432792550201352e-01  -6.3207206096109625e-01  1.2460303691231409e+00  5.3835550686307676e-01  -4.4250112297519634e-01  -8.4432792550201352e-01  -7.8319329649403335e-01  -1.5747490976033005e-01  -4.1799151843319537e-01  -3.8916480827996630e-01  1.1436062622702017e-01  9.0188358399832180e-01  9.9681469123715871e-01  1.0221585136692717e+00  -5.4831963849987464e-01  5.3681914508103268e-01  -2.2701135786710352e-01  2.1476825654233575e-01  -3.8604310641241252e-01  -7.6820745801330004e-01  -7.0927109027567048e-01  1.0795516070092734e+00  1.1433709449880902e+00  -7.6080421196354842e-01  -7.0964497230738566e-01  1.2252833317136087e+00  -2.3537563889072532e-02  -7.5869400948480337e-01  -5.9574745627720704e-01  1.0190805377424634e+00  8.4165907688085639e-01  -7.9574491482757148e-01  7.7221163883193922e-01  -3.8754904574891180e-01  -7.9033945160445607e-01  -6.9507171461008732e-01  -8.4432792550201352e-01  -7.8313563544461695e-01  6.4140569347303156e-01  1.0390967907054576e+00  -7.6820745801330004e-01  8.9773508748724773e-01  -6.9583889029105939e-01  -1.7581202484731387e-01  6.4788211861598236e-02  -8.1837040923187310e-01  -8.4432792550201352e-01  7.9152104909432378e-02  -2.0935637090924183e-01  4.2460471448160925e-01  3.7471993758673916e-01  -6.3803175283846270e-01  -8.4432792550201352e-01  7.9528978753625224e-01  -9.1235956296191550e-02  1.2034693752163490e+00  6.3109558034207569e-01  -8.4432792550201352e-01  -7.6820745801330026e-01  -7.6820745801330026e-01  -8.4432792550201352e-01  -7.8134396221183500e-01  -6.9447392033432487e-01  -6.6698913838563234e-01  -8.1573982247501531e-01  -7.8453431192539780e-01  1.2459790697578197e+00  -8.4432792550201352e-01  -8.4432792550201352e-01  7.9856143928263268e-01  -5.6468659121453291e-01  -6.5414493098976678e-01  -6.0392800279811576e-01  -2.7257994483168435e-01  6.7625838954765294e-01  2.7958248333094715e-01  1.1784782789088848e+00  1.1768573915467480e+00  5.3835550686307621e-01  -2.2701135786710336e-01  1.0795516070092734e+00  1.0795516070092732e+00  5.3835550686307621e-01  1.0795516070092732e+00  -8.4432792550201352e-01  -2.2701135786710336e-01  -8.4432792550201352e-01  -8.4432792550201352e-01  -8.4432792550201352e-01  -8.4432792550201352e-01  -8.4432792550201352e-01  -8.4432792550201352e-01  5.3835550686307676e-01  -2.2701135786710352e-01  1.1939794674728390e+00  -7.7361996410900336e-01  -5.5303456231897119e-01  8.8008422331274028e-01  -3.0344529698505018e-01  -5.7804115035924453e-01  -5.4519135157246712e-01  3.3082568520769740e-01  -8.3723711283755509e-01  -8.3152209117031406e-01  1.1853239723781321e+00  1.1055797071900153e+00  5.1262983190390976e-01  1.0862252306815479e+00  1.1784380530062055e+00  -7.9990467703631152e-01  -3.1291839989229536e-01  5.7848739407807903e-01  -4.4040072733067254e-01  4.6626351412417605e-01  2.5623343174350843e-01  3.5521091616428019e-01  -2.6114477511093115e-01  4.2931634732132080e-02  -1.3037904096891201e-01  1.0239428000884299e+00  1.2280959172219701e+00  -5.2007267435761007e-01  -7.4720123993315346e-01  1.9755038746609346e-01  2.2149677087232592e-01  2.6069701667422335e-01  -3.3871262025503440e-01  9.5426234260588338e-01  1.2956110506184482e+00  8.4222246123965572e-01  -8.0525889258817929e-01  -1.6357984297844178e-01  -1.8136710206100307e-01  1.2031856945105046e+00  1.1847107612723078e+00  1.0832230304973627e+00  -7.9325235284023321e-01  6.2054651963175789e-01  1.4316933261638309e-01  3.4813083661962635e-01  1.2259794828956552e+00  4.3726425008719814e-03  1.0447343236516413e+00  2.5960370273682726e-01  5.5948122762809416e-01  5.4788171634822314e-01  -6.9237304402617617e-01  -1.1520473258535434e-01  4.2047167423655907e-01  -8.1653033141069808e-01  -8.4041118942787185e-01  3.5055846362888776e-01  6.6660575706439629e-01  1.0951028166345609e-02  8.0474887620321023e-01  -8.1286978071849125e-01  9.1496999262531131e-01  -6.5502112575458238e-01  -7.9789953950066450e-01  -8.0345323303435479e-01  -5.2138830298429839e-01  -3.6508437935239402e-01  -5.0634612343461727e-01  -5.3275159325681887e-01  9.1007851595623479e-01  1.1596991235429204e+00  -8.3922812045462380e-01  -8.0605904489568392e-01  -8.1956454292093806e-01  1.1555793662272853e+00  1.1407580544462010e+00  -1.9774414901299889e-01  -6.6740227822242848e-01  -6.2882468571038774e-01  -6.9387692553914904e-01  -8.0084568358396735e-01  1.2020865032867276e+00  -2.7886800587302873e-01  -4.5246035076534019e-01  7.5957962699971771e-01  2.9000852621631062e-01  -2.9854449622941714e-01  -6.8646273841402472e-01  -4.9248510376182658e-01  -8.1361238475122455e-01  -8.0645271068784641e-01  -6.6850581726982150e-01  -5.1415114604830203e-01  -6.6837087990933619e-01  -7.9397907678045687e-01  -8.4155421971659161e-01  -8.4141457910923567e-01  -7.9746961139117523e-01  -7.0838519010607071e-01  9.2583917251305947e-01  -8.4388912427566765e-01  -7.3406455137128834e-01  -6.1226174496982555e-01  -6.5452938275865491e-01  -5.9284319763002158e-01  -6.7211896598060050e-01  1.0988359815814746e+00  -3.2308535680255374e-01  -8.2867153928619974e-01  7.4998728744176679e-03  -8.1927507531867871e-01  -8.2186508450107443e-01  4.1804821007017429e-01  -4.1367123323239863e-01  -4.1901810008030732e-01  2.6062735019815163e-03  2.7002275786065427e-02  1.1479055181132796e+00  -5.4495590697627783e-01  9.1548883601889608e-01  -5.6503613896649540e-01  -7.0864739912421737e-01  4.7158378031975090e-01  1.8236228104409608e-01  9.4418276103284265e-02  -8.2552720202973706e-01  9.1788267038670468e-01  1.1179486045339027e+00  -7.5629107759177483e-01  8.8753186524582284e-01  -8.3026233271433603e-01  -7.1039934735534771e-01  -4.6947977163140286e-01  1.1055429243878085e+00  8.9834180892851490e-01  1.1818982146659427e+00  -4.9759787877715450e-01  4.4963598391712006e-01  4.8355671955537416e-01  1.1364362619125929e+00  -7.0606201205994512e-01  -8.1460774002769631e-01  1.0670638069340306e+00  1.2173739399051979e+00  -2.5983993968699975e-01  -8.1883604114644504e-01  7.8098915467326294e-02  7.4698780375296236e-01  -8.2136982718749529e-01  8.3317547204913101e-01  1.2261345431625097e+00  5.3194764120398708e-01  3.4335860796924633e-01  -5.9076435737755631e-02  -8.0953883420656858e-01  -8.2220658551678028e-01  -7.5894667382893954e-01  -8.2053782118882723e-01  -8.1865561595730241e-01  1.1731917433572809e+00  1.1323535988333693e+00  1.1722576086390688e+00  -8.1238331201681546e-01  -7.6327466258849863e-01  1.2259199319886767e+00  1.2295198990730178e+00  -4.6471689663341659e-01  -2.5228210806402301e-01  1.0981064750904523e+00  6.6138232545184272e-01  -8.1907427970179958e-01  2.4424507724881347e-01  1.0814696708254494e+00  1.0549681715075700e-02  -8.2994051870812990e-01  -4.9843930015121891e-02  1.0658768242955114e+00  -6.1503310802315625e-01  -4.8576464920026702e-01  -5.1786084916969233e-01  -2.6652186201855560e-01  1.4522332748126088e-01  1.0854115795008072e+00  6.5602852168602965e-01  5.2185871021250496e-01  7.9498066118546851e-01  1.3720095871970625e-01  -7.1973286106918433e-01  -5.2858086141909288e-01  -4.4212469580547070e-01  -2.8650584564291370e-01  5.1031254677625493e-01  -7.6704629646443190e-01  -3.1463791520343887e-01  5.4116077497229453e-01  8.6842057668763328e-01  9.0482437498988777e-01  -8.4170928024933633e-01  -8.1732540517546970e-01  7.4110436008509162e-01  8.1994810168855070e-01  8.0773538529916955e-01  1.0815777658186230e+00  9.9361044188402092e-01  -3.3307415538832003e-01  -6.7887264532381797e-01  -8.4432792550201352e-01  -4.5949160855280147e-01  -5.0966073663111899e-01  -8.0601893137974734e-01  8.1670913274320833e-01  -7.6697043329420000e-01  4.3516796029572966e-02  -5.7915650324299128e-01  -3.9418247518141852e-02  -7.9854651429739898e-01  3.5093775188004100e-01  2.0101665797874968e-01  7.5017394255225556e-01  -2.2110174778935848e-01  -4.8054472964952472e-01  1.1485112307548444e+00  1.1535483879372412e+00  -6.2439895564080172e-01  -4.7311678689972297e-01  -2.6202743860093236e-01  1.2083907788819508e+00  1.2769504085017858e+00  8.7378331771702600e-01  1.1224951802297949e+00  -8.4432792550201352e-01  -3.7412006693453448e-01  6.2307966966320649e-01  3.0526039324847232e-01  7.0085372892797837e-01  -7.3588342182643407e-01  1.1191259604845920e-01  -8.0681267724658068e-01  -8.2327085474287465e-01  -4.5037252189003736e-02  -6.8392522708698456e-01  -8.0362296473415007e-01  -9.4549355154427722e-02  -6.7194617593563088e-01  -5.9214312570840300e-01  -5.0823269932396264e-01  1.2355315976465049e+00  -3.1966464850555992e-01  -7.3558582361533986e-01  -8.4432792550201352e-01  7.6041902598626221e-01  -7.9967074769311819e-01  1.2177660311067724e+00  -6.7726542349727825e-01  1.3812807964651824e-01  5.4815764830172875e-01  9.8714168680053183e-01  -7.2766483940113980e-01  3.8244351601919863e-01  -8.2535323116443526e-01  -3.5296808187608975e-01  -7.2405284831832639e-01  -5.9020720613496780e-01  7.3212197332309392e-01  -6.6938975300020687e-01  -8.4432792550201352e-01  -8.2033880382951940e-01  -5.0612634679855006e-01  -7.5546722500229213e-01  -6.8204755405896134e-01  -7.3576923719736609e-01  -7.2221764236558095e-01  -6.1537734467574878e-01  9.9358775452807868e-01  9.4908623090224009e-01  8.6855557616352508e-01  -8.3824052264249704e-01  -3.9989815852161581e-01  -5.6169982020265193e-02  3.4357501542936891e-01  -8.5418887762784168e-02  -5.3728932441673316e-01  7.1124230751758866e-01  -5.7340667567610792e-01  -7.6502043536083020e-01  -3.2417122060448494e-01  -8.1447943643815990e-01  -1.3183150261845461e-01  -2.0361489835851029e-01  1.2918297332708553e-01  1.1867474285028625e+00  2.4610661017468338e-01  7.1124230751758843e-01  1.1319829553571663e+00  9.4484083246154882e-01  8.5828217615890201e-01  -7.7611930340307023e-01  4.6713270047931793e-01  -1.8826177861934901e-01  5.5955355168671261e-01  2.5739699243473807e-01  -8.4432792550201352e-01  -3.9418247518141852e-02  -1.7534223600509813e-01  9.8563548735380124e-01  -8.0662751474318184e-01  -7.2753663682826120e-01  -5.9746144732621842e-01  4.2141996928270442e-01  1.6146918845896408e-03  -6.9709050740819367e-01  1.2123971562338844e+00  -6.4388730237488179e-01  9.1549774495018310e-01  -8.4432792550201352e-01  -4.1582286771160265e-01  -3.4286851479332925e-01  -1.4903322125254018e-01  -8.1628981590050853e-01  -7.7289634706468957e-01  5.0263028782278674e-01  4.2797240502156586e-01  3.0633222497313384e-01  1.8020761172689637e-01  6.8915512927231160e-01  5.9930105703857361e-01  1.2080426209403428e+00  1.4971003104937444e-02  -8.2630431862390408e-01  9.3879460185178298e-01  -1.0379706363075125e-01  -8.1674876111508743e-01  -5.4088283005086168e-01  -7.4676999428405177e-01  3.5076239651411467e-01  5.7221283089993236e-01  2.5780425675889862e-01  4.6630452813253354e-01  -4.2190119304543466e-01  4.0895089758574066e-01  5.3127486032837834e-01  6.6903565989055569e-01  -8.2511320590524395e-01  9.7857005303731692e-01  -7.1652145002212486e-01  -6.6462266843424966e-01  4.0863778963667557e-01  7.0018727937141367e-01  1.0288381067068282e+00  2.9143674332930997e-01  -7.8988893473223121e-01  8.5035678999019360e-01  -3.3685647451577733e-01  -1.7600088928014210e-02  -6.4293780159395877e-03  2.1133390204450844e-01  -5.8434732960434754e-01  -7.4539003967706896e-01  1.1425399963719167e+00  1.2332584587192659e+00  -6.9553661892087570e-01  1.1824965500514304e+00  9.0136819620279263e-01  -8.1380143327049892e-01  -8.2277432012248675e-01  -8.2754713364335819e-01  7.3707245617629458e-01  -8.0366690485833436e-01  1.2386069839924261e+00  -8.4432792550201352e-01  -3.4727152430001945e-01  2.2872686301872169e-01  -7.7662188126735443e-01  -2.6340013795611683e-01  -6.6151291423634540e-01  1.2300330542944489e+00  -6.2203649735571398e-01  1.0660195211400962e+00  6.8112727098781267e-01  -1.2259491168814439e-01  -7.7687990318718969e-01  -4.4250366253902862e-01  8.8902866522769608e-01  1.1577422552434831e+00  7.4672500682254583e-01  1.2113145643110825e+00  -8.9060577703536106e-02  -3.9418247518141825e-02  -8.2398829319871825e-01  5.8699228836360062e-01  -7.3791332664133780e-01  -3.6586711879088840e-01  1.2569243223303745e+00  -6.6255100111392706e-01  1.8520751845695718e-01  -6.2623081730386299e-01  1.2167923030343009e+00  3.4052605502651095e-01  -7.3061744321166699e-01  -8.2924984710360816e-01  -8.3637923580890505e-01  -7.8855183420204045e-01  1.0551192857189762e+00  9.8714168680053183e-01  6.8147415319310256e-01  2.8165110606281524e-01  -6.4250629414672134e-01  1.1680553511426128e+00  -8.3972117302708060e-01  1.2738869465297227e+00  1.1242311019150419e+00  -8.4432792550201352e-01  -2.4106547861268660e-01  6.4237077661264808e-01  1.5695149998224986e-01  -1.9550082198829005e-01  2.2149941686837252e-01  9.8584705667215211e-01  -9.6886986916146320e-02  1.1310150396004381e+00  1.2087161018694370e+00  -8.4432792550201352e-01  -8.4432792550201352e-01  7.0700669227466062e-01  -8.4432792550201352e-01  -3.4180776574671073e-01  -8.3951593516323675e-01  -3.9989815852161581e-01  -8.4432792550201352e-01  -5.7727352474456406e-01  -5.8982095656891653e-01  -6.5771724754384486e-01  -2.9350642337764016e-01  -7.0208260130588662e-01  -8.1120302582569681e-01  3.2639056547249040e-01  -3.9418247518141825e-02  -8.4164475001456285e-01  -8.3309217899090826e-01  -7.7619582451525893e-01  9.6381474444209281e-01  -8.2786176914293985e-01  -6.7794875927236586e-01  -5.3558922045128043e-01  8.1815491094602577e-01  1.2258047688696194e+00  3.1411848238272738e-01  4.9906216262976300e-01  4.5086119167319472e-01  1.4859254413286052e-01  7.1343904185312823e-01  -7.9671066669347634e-01  1.1303061666832859e+00  -1.0798827478317995e-01  1.2009573932308408e+00  1.1719763932075564e+00  -7.5763075949906133e-01  -4.4986991486863326e-01  -8.1647808508118547e-01  1.1367014749485718e+00  9.6403469930853691e-01  -8.4432792550201352e-01  -6.7579753780455876e-01  9.8714168680053194e-01  -3.9989815852161537e-01  -8.4432792550201352e-01  -8.2511320590524395e-01  1.1364573549012169e+00  -8.4432792550201352e-01  3.5076239651411467e-01  7.1124230751758866e-01  -8.4432792550201352e-01  -8.4432792550201352e-01  1.1364573549012169e+00  1.1364573549012169e+00  9.8714168680053194e-01  -8.4432792550201352e-01  -8.4432792550201352e-01  -8.4432792550201352e-01  -8.4432792550201352e-01  -8.4432792550201352e-01  -8.4432792550201352e-01  -8.4432792550201352e-01  -6.7579753780455876e-01  -8.4432792550201352e-01  -8.4432792550201352e-01  -6.7579753780455876e-01  -8.4432792550201352e-01  -8.4432792550201352e-01  -8.4432792550201352e-01  -8.4432792550201352e-01  3.5076239651411512e-01  1.1364573549012169e+00  -6.7579753780455876e-01  -8.2511320590524384e-01  -8.2511320590524384e-01  -8.4432792550201352e-01  -8.4432792550201352e-01  7.1124230751758843e-01  3.5076239651411512e-01  -3.9989815852161537e-01  5.6236130716782885e-02  1.1570101013462584e+00  4.1690526066651673e-01  5.3010242494799698e-01  -3.5724645649454950e-01  1.1709843092440988e+00  -7.4066065384070401e-01  -7.7821400209124569e-01  -8.2305201374864101e-01  8.6851522445068829e-01  -8.4208280927048773e-01  -8.3959233482759299e-01  -5.6954501315725581e-01  -7.8112673013182388e-01  -7.5597813638597344e-01  -8.1525163476353857e-01  -7.7654633110767823e-01  -8.1428211340046708e-01  -8.3416397752604676e-01  1.0385479314084021e+00  1.2124443373687059e+00  1.1387342351872007e+00  -6.8494427252299350e-01  1.1408843747987882e+00  -7.1480253023389706e-01  1.1182263924479899e-01  -7.0211205309206859e-01  8.8182833461883081e-01  1.1089973692950950e+00  -5.1548612028287666e-01  4.9237722869054862e-01  -4.0963228464037499e-01  -1.4944870505572794e-01  -3.4239388454266234e-01  -5.5529610262036588e-01  9.2025930074787832e-01  -6.7517954453734375e-01  3.1266913802167362e-01  5.0934500399721416e-01  2.7790783285090137e-01  -2.3333946446927986e-03  5.8348220476483481e-01  -6.1219318249895038e-01  1.2450913628643028e+00  1.0174453097070242e+00  1.0471730562944492e+00  -3.1934267444218783e-01  -1.6002722395541780e-01  1.1299905104502357e+00  1.1693088892102048e+00  1.2318322113531812e+00  1.4380236484737749e-01  -8.1815686327567949e-01  1.0505516751829851e+00  -4.0735364065186164e-01  -6.3168898645250471e-01  -5.2577953137169742e-01  1.1521043091304655e+00  3.3184403365569098e-01  1.1998910162402876e+00  -1.3090464840738461e-01  -2.8775755404981912e-01  -6.3839064809687307e-01  9.0171353855717473e-01  -6.1856014732578202e-01  -5.2495848196025030e-01  -5.3003119314721803e-01  6.7548997544323508e-01  -2.8398315072300034e-02  6.1164244127379475e-01  1.0415064145005661e+00  1.1530669259251596e+00  -2.4918343248351782e-01  -3.6010335569233964e-01  -4.0619126086312923e-01  1.0307572745689402e+00  1.0151097996122485e+00  -6.1885788207136117e-01  1.1550762687067551e+00  1.2238655680646848e+00  5.8548310420216698e-01  5.3554423753468128e-01  -2.3084553323981133e-01  -7.4201293267449397e-01  9.3029632880098834e-01  1.2073471884517015e+00  -8.0732617225783709e-01  -4.8977482456462940e-01  7.6960558846591420e-01  1.0817692759539883e+00  6.8531574189157313e-02  -7.5240727210843739e-01  -7.1973190281723398e-01  -7.0242220005083034e-01  -8.1670958026015994e-01  5.3899963928031314e-01  5.7198225126639290e-01  5.3659278770620704e-02  1.7622475185471381e-01  -6.0696179191347976e-01  -5.8166299201342175e-01  9.6544864462356539e-01  5.9839189788202884e-01  -6.9979732422783703e-01  -5.9827198984586727e-01  1.1247146961452419e+00  6.2629059010598698e-01  -5.3404771210952584e-01  -4.5139014154613200e