<?xml version="1.0"?>
<VTKFile type="UnstructuredGrid"  version="0.1"  >
<UnstructuredGrid>
<Piece  NumberOfPoints="15681" NumberOfCells="30848">
<Points>
<DataArray  type="Float64"  NumberOfComponents="3"  format="ascii">0 1 0  0 0 0  1 0 0  1 1 0  0.5 0 0  1 0.5 0  0.5 1 0  0 0.5 0  0.5 0.5 0  0 0.25 0  0.25 0 0  0.25 1 0  0 0.75 0  1 0.25 0  0.75 0 0  1 0.75 0  0.75 1 0  0.7083333333333333 0.2916666666666667 0  0.2916666666666666 0.7083333333333334 0  0.375 0.25 0  0.75 0.625 0  0.2569444444444444 0.4652777777777778 0  0.5366379310344828 0.7535919540229885 0  0.1875 0.1875 0  0.8125 0.8125 0  0.869047619047619 0.375 0  0.1450441919191919 0.6052714646464646 0  0.375 0.8690476190476191 0  0.5526960784313725 0.1825980392156862 0  0.8385416666666666 0.1614583333333334 0  0.1614583333333333 0.8385416666666667 0  0.6736111111111112 0.4652777777777778 0  0.1367521367521368 0.3477564102564102 0  0.6570970491253563 0.8648656830417855 0  0.5102479397556124 0.3386260301221938 0  0.3654513888888889 0.5737847222222222 0  0.6929750044954185 0.1362784921584263 0  0.388576102743835 0.411911725237599 0  0.6091269841269842 0.5942460317460317 0  0.875 0.6875 0  0.427278890279516 0.119889445139758 0  0.8544456845238095 0.5213913690476191 0  0.125 0 0  0 0.125 0  1 0.875 0  0.875 1 0  0.1280008648150532 0.4769292340226777 0  0.2695382451711197 0.3321750950221553 0  0.7031567235715964 0.7447810921428012 0  0.625 0 0  0.375 0 0  0.125 1 0  0.875 0 0  0 0.375 0  0 0.625 0  1 0.375 0  0.375 1 0  1 0.125 0  0 0.875 0  0.625 1 0  1 0.625 0  0.2979288363930608 0.1201429454643536 0  0.410919540229885 0.7484605911330049 0  0.5325041980395562 0.878905151526474 0  0.4831670727569156 0.6331060043826487 0  0.1735997378973042 0.7204747378973043 0  0.2534919507575758 0.5772372159090909 0  0.2633928571428572 0.8876488095238095 0  0.8199404761904761 0.2730654761904762 0  0.75830270586982 0.3919383189517417 0  0.5750282248382511 0.4237522353023667 0  0.6008360210023379 0.2794828358598495 0  0.08163442644334186 0.6821295860397322 0  0.08333333333333333 0.1875 0  0.2028380815996574 0.08844602719988583 0  0.2766521142611967 0.2325436572164097 0  0.90625 0.78125 0  0.890625 0.890625 0  0.7545696325008384 0.8973565441669461 0  0.5625 0.08086590340834317 0  0.09077380952380953 0.09077380952380952 0  0.4610923478694773 0.209034015149656 0  0.7542527598351648 0.5248380520595106 0  0.6459235536037465 0.3619913988405765 0  0.7560381768882634 0.20506142233852 0  0.07073252688172042 0.8125 0  0.0924753097241701 0.9078102849914793 0  0.9292674731182795 0.1875 0  0.9075246902758297 0.09218971500852073 0  0.8125 0.07073252688172045 0  0.2400955776842301 0.7869705776842302 0  0.9121050213379069 0.2781978201831695 0  0.7916878157143976 0.7239689078571988 0  0.9345238095238094 0.4375 0  0.4375 0.9345238095238095 0  0.3725616989755203 0.6651895248862173 0  0.06536271996350887 0.5625 0  0.9348362560379583 0.5625 0  0.456646798987055 0.8277247094351965 0  0.1875 0.9355758238725954 0  0.6169761231634859 0.6939779188977889 0  0.6226854751147515 0.7827911461419014 0  0.3305695598137626 0.7901697871282585 0  0.5865305325818898 0.5101085479043448 0  0.6622701297028378 0.2177663989757395 0  0.1354166666666667 0.2591702279202279 0  0 0.3125 0  0.2094429575680048 0.3936361846162499 0  0.836666296419157 0.607917407161686 0  0.6875 1 0  0.214261555450504 0.6492551722020035 0  0 0.4375 0  0.07731537126068377 0.40625 0  0.3427725432967068 0.4879566233699599 0  0.3550792513951871 0.3331953632609953 0  0.4462473953896857 0.2887834789342508 0  0.4747801464819794 0.417386052030127 0  0.8229836475148948 0.4443292349237342 0  0.7322605135514757 0.8199240278289671 0  0.6756431877205955 0.5468989748126787 0  0.1968419507215863 0.5194573482612496 0  0.3285590277777778 0.9345238095238095 0  0.8125 1 0  0.4198917601920009 0.5134893045331258 0  0.5232405503206691 0.2595791787880157 0  1 0.9375 0  0.1987510870015086 0.3025185951894431 0  0.5625 1 0  0.6005390654136388 0.9228110509230952 0  0.6411254848194414 0.07704872765442942 0  0.3357233162523242 0.1855113224530532 0  0.6730653396610877 0.6393887462324165 0  0.310966987234063 0.6240019765311626 0  0.7368737836204349 0.07457755202327881 0  0.6192316414418171 0.1485238406378594 0  0.5432429670607106 0.678552703844006 0  0.4754371679695679 0.7103946803120881 0  0.07501324890749672 0.3043839897335739 0  0.5358146975860403 0.5688321463205916 0  0.3115271739500156 0.3982137365971444 0  0.3625191397122174 0.0767854603650549 0  0.5024029442563831 0.1264128223758444 0  0.4375 0 0  0.4699946908887376 0.06379961173775725 0  0.9375 0.71875 0  0.9272105898044465 0.635671179608893 0  0.9375 1 0  0.6690971819568612 0.9331530898202766 0  0.1073454944778885 0.7499206387638554 0  0.8699082999280406 0.2232403652524313 0  0.5773118091863964 0.3548027349159383 0  0.1354166666666667 0.1428571428571428 0  0.3125 0 0  0.8241684193077341 0.9257452995055244 0  0.4352314948354036 0.3586940847489378 0  0.4351301473778832 0.5819726043539077 0  0.8073232928518163 0.3419398170341962 0  0.7775949246947366 0.1298519409204575 0  0.6875 0 0  0.7413513991851041 0.457933324954483 0  0.939453125 0.841796875 0  0.5630355154606987 0.8171875156478349 0  0.9345238095238095 0.3461466592368577 0  0.9375 0 0  1 0.0625 0  0.0625 1 0  0 0.9375 0  0.06552178593177167 0.4969053669623468 0  0.1424866619031703 0.4130277709291224 0  0.1275287182444726 0.5422946908002588 0  0.2637686595586339 0.06413888464529549 0  0.2524263535491086 0.1697437503243817 0  0.7367218397988525 0.6888573970660841 0  0.0625 0 0  0 0.0625 0  0.8463594539285995 0.7578283617857982 0  0.3128751192101563 0.2851997374369947 0  0.4015281788351144 0.1806421385113692 0  0.1910251795116588 0.4553332197174453 0  0.287797471442006 0.5222621440543902 0  0.3962628745986055 0.8097380085535307 0  0.3505895299554843 0.7304878890838692 0  0.5019151500495276 0.9356042615328103 0  0.9374389419410134 0.4999931039076005 0  0.3125 1 0  0.1875 1 0  1 0.5625 0  0.4375 1 0  1 0.3125 0  1 0.4375 0  0.8125 0 0  1 0.1875 0  0.5625 0 0  0.1875 0 0  0 0.1875 0  0 0.5625 0  0 0.6875 0  0 0.8125 0  1 0.6875 0  1 0.8125 0  0.8021696218581627 0.6612893947866073 0  0.06154922295426143 0.6239401126946708 0  0.9359375 0.9359375 0  0.4666158024849896 0.7691515918155014 0  0.2318201265217025 0.7064974250277525 0  0.1565954253579966 0.6635489312486841 0  0.1598132503680848 0.7787147500325552 0  0.3146529991605639 0.8510876378205265 0  0.1461873209418733 0.05982804528877814 0  0.06109554988524315 0.2446551776247686 0  0.8054950308560754 0.5564226538848541 0  0.470541749491976 0.8853316336952531 0  0.6948472567465137 0.4042308563372457 0  0.8802828472348889 0.4658893256343853 0  0.6788075634946739 0.7974194205806069 0  0.2155048659603867 0.2428201584940968 0  0.8131223143423806 0.2132171049028394 0  0.4330798005432235 0.6671274900735726 0  0.6015279126162613 0.2187368078743274 0  0.8061636571464289 0.8703766630361714 0  0.7008230445061776 0.3478568388444072 0  0.8638466246958771 0.3147095987735538 0  0.204801534004265 0.8789209409594009 0  0.2449006736431132 0.9424182882803838 0  0.7611268409371427 0.2643056884799992 0  0.7552800864046191 0.7678006649959446 0  0.5983639638906616 0.864113435029236 0  0.1956559506814437 0.577281203577426 0  0.3527670268164207 0.1320469097565204 0  0.7530364577483248 0.3262386077083089 0  0.4535919187979363 0.4690107087451527 0  0.8824869791666666 0.8336588541666666 0  0.8814453125 0.9451171875 0  0.5582987942628019 0.622421666543858 0  0.6817532446064828 0.6939001801354731 0  0.3830295138888889 0.9450968952922078 0  0.4140603937012541 0.05211333372716105 0  0.5535864501303013 0.3060591985391672 0  0.6560130086346878 0.2729726562211558 0  0.890203140221684 0.5948314305427268 0  0.7043857725999024 0.593980890020804 0  0.5105843922695152 0.8016828014338627 0  0.05365910753708378 0.7315110031682004 0  0.616904573672261 0.4621186633436136 0  0.5338511646455415 0.387875898899613 0  0.5231769258947843 0.4477682463140762 0  0.650302973237622 0.7370722302085519 0  0.3927483139621257 0.4662414504529014 0  0.8034595960585199 0.4972538342758211 0  0.7738337841682438 0.9496376207663251 0  0.7193737507158268 0.954685447650112 0  0.482525916480686 0.5528257169991676 0  0.2533501157346781 0.2809495420003238 0  0.3118487924482243 0.5702930126570319 0  0.6257598847669529 0.4104163315430518 0  0.1354166666666667 0.1955605158730158 0  0.04166666666666666 0.15625 0  0.3956448985530264 0.6174149462065157 0  0.8102897701818546 0.3938784238208349 0  0.2641154190013625 0.8344469561943118 0  0.642852220770013 0.5068794586563659 0  0.05271458179508221 0.355846947336007 0  0.7021551360070266 0.8921457280225779 0  0.5692125776683765 0.1328512638850284 0  0.5206162811937602 0.04865158770992991 0  0.6001838442201555 0.04540556991297563 0  0.2597716608242787 0.4118346398477178 0  0.4040584599473195 0.3179589136784675 0  0.1480337679295207 0.8941560631483065 0  0.1344356707112281 0.9466251177415842 0  0.7114696411829317 0.4983917389078826 0  0.7585704698442475 0.5751926345944629 0  0.2189131956390871 0.04022068508159698 0  0.2476935455192043 0.1123642267635843 0  0.185995005654517 0.1365524537205238 0  0.6223414373308711 0.643380839165121 0  0.5732602596637543 0.7190051747306219 0  0.268358222364537 0.6586246524467934 0  0.3265879848129173 0.2369791782191225 0  0.1267095595787346 0.7034787238999181 0  0.1115202922226038 0.6421997933884982 0  0.3128688392940203 0.07260997451790079 0  0.550724900485678 0.9253360991633187 0  0.7142608810459105 0.2384904702214873 0  0.7045869185243887 0.1871826897887429 0  0.890625 0.734375 0  0.953125 0.765625 0  0.2111812642821677 0.8286209446459138 0  0.9590293078204457 0.09375 0  0.953431269039847 0.1435719386408004 0  0.04097069217955424 0.90625 0  0.04656873096015299 0.8564280613591996 0  0.1078743037981226 0.8541621766048062 0  0.8921256962018773 0.1458378233951939 0  0.8521576979194619 0.1084496634207678 0  0.8655663982740958 0.05464346096571447 0  0.04005659640905543 0.09375 0  0.1001448316533417 0.0424677624422826
[...]
<PointData  Scalars="f_139523"> 
<DataArray  type="Float64"  Name="f_139523"  format="ascii">-8.7630668004386447e-01  -8.7630668004386447e-01  -8.7630668004386447e-01  -8.7630668004386447e-01  -8.7630668004386447e-01  1.1236933199561356e+00  1.1236933199561356e+00  -8.7630668004386447e-01  -4.5303905571598260e-02  -8.7630668004386447e-01  -8.7630668004386447e-01  1.2369331995613547e-01  -8.7630668004386447e-01  1.2369331995613547e-01  -8.7630668004386447e-01  1.2369331995613571e-01  1.2369331995613571e-01  -6.7604055539842015e-02  -6.7575188217062834e-02  -6.8909007168554526e-01  1.1230009160193752e+00  -5.5208309228654351e-01  1.0112325564735170e+00  -7.8890437459192408e-01  7.2160217878736543e-01  6.0299308878050073e-01  -6.9792620562434626e-01  6.0294032519663365e-01  -6.1339376617191455e-01  -4.8596962545420597e-01  -4.8645070506963944e-01  5.2336490771336297e-01  -7.9452708057214971e-01  1.0763346563908787e+00  -3.6315335513442948e-01  -2.1253026983055975e-01  -6.5705745624907641e-01  -5.1743946343218727e-01  6.6779076583010055e-01  9.7043475077089714e-01  -7.9394501993949185e-01  1.1152392058764666e+00  -8.7630668004386447e-01  -8.7630668004386447e-01  -5.8341346123041182e-01  -5.8341346123041182e-01  -7.5723316211241054e-01  -6.6794365704703984e-01  1.1889979564781663e+00  -8.7630668004386447e-01  -8.7630668004386447e-01  -5.8341346123041204e-01  -8.7630668004386447e-01  -8.7630668004386447e-01  -8.7630668004386447e-01  8.3080010114268299e-01  8.3080010114268299e-01  -5.8341346123041204e-01  -8.7630668004386447e-01  8.3080010114268321e-01  8.3080010114268321e-01  -7.9660348856694574e-01  4.8538864570372736e-01  1.1637579257776989e+00  3.9433209463182173e-01  -5.1624099294977643e-01  -4.7291441138216350e-01  6.9283216738475886e-02  2.6668695794612014e-02  4.3030463269650465e-01  -5.3468172479318656e-02  -3.6909053395337593e-01  -7.8736237968268041e-01  -8.3878256796827044e-01  -8.3199903930004993e-01  -7.2449151570642001e-01  4.2808002637170078e-01  -1.1529771301335187e-01  6.1446657422822037e-01  -8.0445880553469162e-01  -8.4917540012943871e-01  -6.2636674739975240e-01  9.7169130641329371e-01  -1.0275626222433778e-02  -3.6137427051058735e-01  -7.8105584052973187e-01  -7.1414651374501226e-01  -3.0407073847623112e-01  -7.1386364266002789e-01  -7.8042835013167355e-01  -1.7552294483950059e-01  1.8622271711058991e-01  1.0931010278798583e+00  9.9082654851983876e-01  9.9129131458159614e-01  9.4566971813041523e-02  -8.2249403697003309e-01  1.1374324491646119e+00  9.1891726062669732e-01  -3.0141829459127262e-01  1.0197381602371132e+00  1.1421307642098573e+00  2.5545024814819683e-01  2.8207936631945768e-01  -4.3353137578337952e-01  -7.9744624947700815e-01  -8.7630668004386447e-01  -7.2621355864590931e-01  1.1470256239764847e+00  5.0637675232122592e-01  -4.7189072557867867e-01  -8.7630668004386447e-01  -8.3561879255776650e-01  -4.0003747359174935e-01  -6.0421048243225584e-01  -5.3854307758030373e-01  -3.2564850494762615e-01  8.5429691827294818e-01  9.9805216755358739e-01  8.1286287353651565e-01  -6.3161390226260239e-01  4.9963797145810163e-01  -2.5899011240895448e-01  -2.3698672104271312e-01  -4.8684366465410112e-01  -8.0018621255515099e-01  -7.3940504334682244e-01  1.0475728524674224e+00  1.0897229206969568e+00  -8.1026149894523503e-01  -7.4543110644889599e-01  1.0310855196315434e+00  -2.2624895940553458e-01  -7.8241474034624536e-01  -6.8486696237281941e-01  8.1359032943844367e-01  6.8832450724840766e-01  -8.3229617502946507e-01  3.4599917194180824e-01  -6.0970222246211336e-01  -8.4507460199844142e-01  -7.7581879286541955e-01  -8.7630668004386447e-01  -8.2513258746079210e-01  6.1123894122551203e-01  9.8635163191947528e-01  -8.0018621255515099e-01  8.6048218166634272e-01  -6.9993174335243069e-01  -1.6778381835504641e-01  -2.2871249704154925e-01  -8.2678379174201222e-01  -8.7630668004386447e-01  7.7496148765792222e-02  -4.9627006319719252e-01  1.4476295180104619e-02  3.3489026640548675e-01  -6.2982230206536449e-01  -8.7630668004386447e-01  7.1024698087123339e-01  -1.0858736151978761e-01  1.1436580366189923e+00  5.9515846163640218e-01  -8.7630668004386447e-01  -8.0018621255515121e-01  -8.0018621255515121e-01  -8.7630668004386447e-01  -8.4142270508981709e-01  -7.8588166957741146e-01  -7.1797138989336606e-01  -8.4060942941882566e-01  -7.7033353490671086e-01  1.1841885269389385e+00  -8.7630668004386447e-01  -8.7630668004386447e-01  8.1699279064778663e-01  -6.6100743691381758e-01  -7.5355960244994358e-01  -6.6059559079074237e-01  -4.2290351387741676e-01  5.7213027471548106e-01  1.9478751535385114e-01  1.1204444691193380e+00  1.1177151766124873e+00  5.0637675232122525e-01  -2.5899011240895431e-01  1.0475728524674224e+00  1.0475728524674222e+00  5.0637675232122525e-01  1.0475728524674222e+00  -8.7630668004386447e-01  -2.5899011240895431e-01  -8.7630668004386447e-01  -8.7630668004386447e-01  -8.7630668004386447e-01  -8.7630668004386447e-01  -8.7630668004386447e-01  -8.7630668004386447e-01  5.0637675232122592e-01  -2.5899011240895448e-01  1.1578329811564956e+00  -8.3707967816265261e-01  -5.7679880477579182e-01  8.1470391512606866e-01  -3.1968472803092601e-01  -6.1926566615858147e-01  -5.2599805149705980e-01  2.8847201708937326e-01  -8.5071188184749769e-01  -8.4157378387583515e-01  1.1288834736371984e+00  1.0433232021083885e+00  2.9491344165467687e-01  1.0296134475699645e+00  1.1474340882765328e+00  -7.4677845130935128e-01  -2.7167490528301869e-01  3.3662208954808220e-01  -5.3831829245723528e-01  4.7048076057502469e-01  1.2054273903880118e-01  3.0636844688548870e-01  -2.5109371048630563e-01  3.1399151789073210e-02  -1.0506958262238994e-01  1.0726853408748598e+00  1.1417536258501748e+00  -6.1426561307863603e-01  -8.0419723219573747e-01  1.6212134900738873e-01  -2.0894018373709847e-01  2.5635539564739729e-01  -3.5453804360515312e-01  6.2246568086037368e-01  1.1555393342580809e+00  7.8307422500024637e-01  -8.5066969365386436e-01  -3.5040447765679394e-01  -2.6449267277156358e-01  1.1309573081998352e+00  9.8381977063156711e-01  1.0004170209945822e+00  -8.2156102869581238e-01  2.7133992861244222e-01  -2.2155762889429681e-01  -8.8583398267119320e-02  1.1539921889365685e+00  -3.6996837290927526e-01  9.5848172525662712e-01  2.4171649843116855e-01  5.3220293493866766e-01  1.0716807236016235e-01  -7.0121028826431242e-01  -3.4025555744061653e-01  7.0477759125042547e-02  -8.1541649086981516e-01  -8.5850100787099548e-01  1.3686803319766074e-04  5.6321141413089382e-01  5.4105807295797752e-04  5.1857171635516786e-01  -8.5221552149234436e-01  8.7324699313803145e-01  -7.3302936179423128e-01  -8.4297465662239335e-01  -8.4548962868014566e-01  -6.5863633057896076e-01  -6.0088245026576825e-01  -5.1250046177162500e-01  -5.5843673904886781e-01  7.6066199153403169e-01  1.0604243708547734e+00  -8.5318852395898293e-01  -8.0772885395205696e-01  -8.1299830693541708e-01  8.8319626639215032e-01  9.7188621493701399e-01  -2.7290215047701322e-01  -6.9995876385907818e-01  -6.6806838171132832e-01  -7.5257135623434246e-01  -8.3743167703907673e-01  1.1621044251889781e+00  -2.7990780228847839e-01  -4.8230705281081082e-01  7.3434785262577351e-01  2.7149040868929952e-01  -2.6296256691869929e-01  -7.0715513895763382e-01  -5.0965236773225542e-01  -8.3535305122393833e-01  -8.2765362413169774e-01  -6.7667214498103223e-01  -5.2336752595852010e-01  -6.7357598935720164e-01  -8.1579241467376673e-01  -8.6291758272409202e-01  -8.6273921708240797e-01  -8.1965191711591612e-01  -7.3349836771300769e-01  8.4901073488039291e-01  -8.6875375294825663e-01  -7.7354105214901292e-01  -6.9471729947549898e-01  -7.0976994948785410e-01  -6.9637200962792090e-01  -6.6408041594580025e-01  8.3233105908606908e-01  -5.0754185918993622e-01  -8.4406719047228618e-01  -6.8072919973330183e-03  -8.3627827868358406e-01  -8.3864738535818661e-01  3.8624373197011552e-01  -4.3857897733875517e-01  -3.7395142136265253e-01  -7.2874586364071682e-04  -2.0325324884615559e-01  1.0800055670196662e+00  -5.8346951458937535e-01  5.7456031579545097e-01  -5.7307751753568337e-01  -7.5141259203505861e-01  2.9255086599976948e-01  3.2092991633314721e-02  7.0404813691665083e-02  -8.5760787757624424e-01  8.4233182569253873e-01  1.0327498811951465e+00  -7.9882210979483337e-01  8.3897592278558719e-01  -8.5757102577139499e-01  -7.7709885221738306e-01  -5.5005968246688242e-01  1.0641455740345409e+00  9.3823969651197026e-01  1.0834861611766629e+00  -4.6488456187342792e-01  3.6675608477018012e-01  4.2977814427140232e-01  1.1003905318112028e+00  -7.8097184470000069e-01  -8.5253218103865969e-01  1.0280649584164869e+00  1.1621552520007914e+00  -5.2703627918372176e-01  -8.5247893393969010e-01  -7.8422163928963146e-02  7.6365667215556299e-01  -8.4968911057206231e-01  7.9993292858768239e-01  1.1413076329960763e+00  1.0126190186866327e-01  3.1314540682913444e-01  -2.9314478833450780e-01  -7.8838190880275028e-01  -8.2343828533525643e-01  -8.0045908864968995e-01  -8.5241455069977878e-01  -8.5461830466293454e-01  1.1388721949730802e+00  1.0971427100054130e+00  1.1373514702483425e+00  -8.4182304058118029e-01  -7.9079965436960586e-01  1.1608956627688805e+00  1.1360106329974942e+00  -5.2721982328301575e-01  -2.7136115477724077e-01  1.0518020027503903e+00  2.1570166090296697e-01  -8.5751243097721819e-01  2.3985985293550546e-01  8.1376686979393797e-01  -3.9960985256642340e-01  -8.3402531040996897e-01  -3.8777825649684305e-01  1.0285800432444776e+00  -6.9600839428287731e-01  -6.3592140884655191e-01  -6.4536429487424929e-01  -5.7480691555448271e-01  1.2623242329302364e-01  9.5702696244149976e-01  4.7755424221510662e-01  1.9114958351157629e-01  7.1867800643298374e-01  -1.3276447210809583e-01  -7.4513999397544406e-01  -6.0849604652804490e-01  -5.4185956135067059e-01  -4.5181130434057332e-01  4.7124554099210675e-01  -8.3342839592392692e-01  -5.8300881093114187e-01  5.5074732162975670e-01  4.5722196080112504e-01  8.6459720386936512e-01  -8.5601519654052771e-01  -8.6136495542900571e-01  6.6012140329760738e-01  7.2578211292403905e-01  4.1497623025747465e-01  9.9570255546759878e-01  9.4234704557336679e-01  -4.2937298377283284e-01  -7.0871532123206038e-01  -8.7630668004386447e-01  -4.9846603990136068e-01  -6.0285625519967767e-01  -7.4900979190705319e-01  7.2275392868667254e-01  -7.6285348715361823e-01  -3.1696745667607867e-01  -6.5123706827016803e-01  -7.1397002059992803e-02  -8.2237488170460427e-01  -1.0249719893443407e-01  -1.6535761089271692e-01  6.7451945840122418e-01  -4.3814197282175255e-01  -6.4272886401597651e-01  1.1582591256791144e+00  1.0705715327831706e+00  -7.1533066825654668e-01  -5.2755491025939583e-01  -2.1961195891287766e-01  1.0904522224353532e+00  1.1543910550123833e+00  9.0895444340148590e-01  1.1267947291179561e+00  -8.7630668004386447e-01  -3.6482702795781169e-01  2.0177768677884628e-01  2.7185391663005914e-01  6.6914648792088260e-01  -7.9618404555671562e-01  9.0936761180728992e-02  -8.4853716730792761e-01  -8.5263531299203899e-01  -4.4129033718766926e-02  -7.2360152744843442e-01  -8.3730628542883423e-01  -4.7942241891660109e-01  -6.9584769829145676e-01  -6.1838951834527955e-01  -6.4988315885543446e-01  1.0625805241378439e+00  -4.4557656864173628e-01  -8.1561107115703979e-01  -8.7630668004386447e-01  5.3949809350251354e-01  -8.4414412733091715e-01  1.1445370019773682e+00  -6.7893072968673707e-01  1.2316903116873591e-01  5.0778198704924404e-01  9.5516293225868087e-01  -7.7173068771475006e-01  -2.3273410600153605e-02  -8.5900066244463669e-01  -4.2782817315716032e-01  -7.9872510773707761e-01  -6.4228176572472140e-01  6.5821680716432629e-01  -7.6431549920316832e-01  -8.7630668004386447e-01  -8.4361084194044100e-01  -5.9361925290351070e-01  -7.6587284737718742e-01  -7.2436820397869539e-01  -7.7747054756284473e-01  -7.7544288198791345e-01  -6.8709121617752023e-01  8.4722351367126969e-01  8.5591850879527354e-01  5.9822573027520232e-01  -8.4744680451813315e-01  -4.3187691306346676e-01  -6.9214125686070660e-02  3.4519218349514597e-01  -9.0638370654583106e-02  -6.1285981644732446e-01  6.7926355297573771e-01  -6.7798972070278707e-01  -8.2063539316990786e-01  -4.7873641754379309e-01  -7.9024532255218127e-01  -1.1970067313432847e-01  -3.6175930979000609e-01  -5.0186883129701293e-02  1.1244987764510337e+00  -8.8051981407710589e-02  6.7926355297573748e-01  1.0822052382960270e+00  8.6247357547361514e-01  8.3525096806182164e-01  -7.8323833437797918e-01  4.7450147262383291e-01  -1.3673415278481763e-01  2.9483367078127737e-01  -1.8703475129788316e-01  -8.7630668004386447e-01  -7.1397002059992803e-02  -1.9326595371524224e-01  9.4452128365871380e-01  -8.6192568693377491e-01  -7.5752422237884465e-01  -6.1203725248039820e-01  2.8204740480935142e-01  -1.9275036707301140e-02  -7.8463181149723893e-01  1.1420590232016201e+00  -7.3902892970501621e-01  8.6279670942020481e-01  -8.7630668004386447e-01  -3.7819763259595535e-01  -3.6414145288297944e-01  -1.6456680547697575e-01  -8.5287167664557784e-01  -8.1319465642008693e-01  3.9334197130303103e-02  3.8829875269903358e-01  2.6445128338772550e-01  1.4508305200657262e-01  5.1896458067616724e-01  4.4203808797403116e-01  1.1803699872111915e+00  -1.2032285451906889e-01  -8.4386544513892237e-01  9.1670432161366433e-01  -8.8918051373540807e-02  -8.5977523357156382e-01  -6.0228407709908349e-01  -7.7352297182666174e-01  3.1878364197226372e-01  4.9109513202781591e-01  2.2018214254992435e-01  3.9811358878938263e-01  -6.1757766567362116e-01  3.7946409242323370e-01  5.2452971387420466e-01  6.3585145602570392e-01  -8.5709196044709490e-01  9.2197568299634558e-01  -7.7090065752500347e-01  -7.1788666483137387e-01  1.5509529075569331e-01  6.6790392617367167e-01  9.9218195248347929e-01  -1.0105764445660530e-01  -8.0648291733417954e-01  6.4076172514686214e-01  -3.6311661651255606e-01  -2.9664405932243450e-02  -2.6204713649051736e-01  -1.5587974147786349e-01  -5.9907664516288217e-01  -7.6099168968576836e-01  1.0982726563423735e+00  1.1279862615572032e+00  -7.7934404846341376e-01  1.1552450782956685e+00  8.4591569482721318e-01  -8.1274019976839007e-01  -8.3258939810993837e-01  -8.3813242750507078e-01  6.4590516988120505e-01  -8.2863755403604045e-01  1.0715211510345573e+00  -8.7630668004386447e-01  -3.3447331427403837e-01  1.9887769167204411e-01  -7.9985889010478506e-01  -3.0120432648389484e-01  -7.3310285387646035e-01  1.1594001609857487e+00  -6.4690703758925350e-01  7.1615706034548587e-01  6.5318828926661088e-01  -1.4047265274527654e-01  -8.1500919379148873e-01  -5.3844469617909030e-01  6.8368993133805067e-01  1.0873810032426214e+00  7.0975430790398764e-01  1.1797903971649590e+00  -2.5379002304193443e-01  -7.1397002059992776e-02  -8.0964989354859696e-01  1.2267728457819016e-01  -8.1127243942458138e-01  -4.5579406529548888e-01  1.1245990154905414e+00  -7.5047069411867384e-01  -2.6187715517920357e-01  -7.0591847765842353e-01  1.1587037867366450e+00  2.7737827608423610e-01  -7.7224912069283491e-01  -8.4143093558805482e-01  -8.5460954921192445e-01  -8.1933145455051382e-01  1.0151738773349523e+00  9.5516293225868087e-01  2.2605504942710966e-01  -1.3104077501236769e-01  -7.2800510497527349e-01  1.1251404159263860e+00  -8.5559854165210836e-01  1.2013987784070319e+00  1.0785535793590650e+00  -8.7630668004386447e-01  -2.3324567843122668e-01  6.4986531315451290e-01  1.5718504926081642e-01  -4.0013354389810407e-01  2.1385276988939800e-01  9.8525818358259931e-01  -3.2723960817950126e-01  1.0868378003451937e+00  1.1496085614175746e+00  -8.7630668004386447e-01  -8.7630668004386447e-01  7.3476944617391349e-01  -8.7630668004386447e-01  -3.5925081778385620e-01  -8.5995925614103608e-01  -4.3187691306346676e-01  -8.7630668004386447e-01  -5.6669541044552041e-01  -6.6739154541079759e-01  -6.9315843538630484e-01  -5.2680121681610315e-01  -7.5051071178063999e-01  -8.0600630656893202e-01  1.1680498472905258e-01  -7.1397002059992776e-02  -8.6573469339648101e-01  -8.5045902847315025e-01  -8.3478399785001467e-01  9.1043650277514931e-01  -8.5286369501775650e-01  -7.2242823007766477e-01  -6.1328480128434804e-01  7.3717516450358322e-01  1.1786564325345426e+00  2.8032770672521046e-01  4.5444981779169480e-01  3.3444908669136281e-01  6.3075097443674746e-02  7.4347949026858839e-01  -8.3001486236964805e-01  8.2196944998879273e-01  -1.2714597556814997e-01  1.1576654213346469e+00  1.1279473472762689e+00  -7.7083270949717331e-01  -4.6344221177211586e-01  -8.6204375298845959e-01  1.0979420827373503e+00  9.1797501276629256e-01  -8.7630668004386447e-01  -7.0777629234640971e-01  9.5516293225868099e-01  -4.3187691306346632e-01  -8.7630668004386447e-01  -8.5709196044709490e-01  1.1044786003593661e+00  -8.7630668004386447e-01  3.1878364197226372e-01  6.7926355297573771e-01  -8.7630668004386447e-01  -8.7630668004386447e-01  1.1044786003593661e+00  1.1044786003593661e+00  9.5516293225868099e-01  -8.7630668004386447e-01  -8.7630668004386447e-01  -8.7630668004386447e-01  -8.7630668004386447e-01  -8.7630668004386447e-01  -8.7630668004386447e-01  -8.7630668004386447e-01  -7.0777629234640971e-01  -8.7630668004386447e-01  -8.7630668004386447e-01  -7.0777629234640971e-01  -8.7630668004386447e-01  -8.7630668004386447e-01  -8.7630668004386447e-01  -8.7630668004386447e-01  3.1878364197226416e-01  1.1044786003593661e+00  -7.0777629234640971e-01  -8.5709196044709479e-01  -8.5709196044709479e-01  -8.7630668004386447e-01  -8.7630668004386447e-01  6.7926355297573748e-01  3.1878364197226416e-01  -4.3187691306346632e-01  3.7582953479375368e-02  1.0774070616386131e+00  1.4206811508518291e-01  4.9751527938611473e-01  -4.7219812409433748e-01  1.1270161504080873e+00  -7.3040653520700094e-01  -7.2739569219916045e-01  -7.6224935987024411e-01  8.3549888369254643e-01  -8.6468736463361240e-01  -8.6213411755663527e-01  -5.5659273867092329e-01  -8.2928410487411142e-01  -7.9497401777830612e-01  -8.6324462325241602e-01  -8.1939719253883203e-01  -8.4230719844348634e-01  -8.3506113110467395e-01  9.9225741727087569e-01  1.1478182714893372e+00  1.0545233771873275e+00  -7.1602331282155163e-01  1.1001264184878041e+00  -7.8759748874059032e-01  -3.1982765290427345e-01  -7.9718770461743749e-01  4.9078509801880194e-01  8.8229979509117340e-01  -6.1374657892848039e-01  4.2013387148575448e-01  -6.0342276663407457e-01  -4.2568588402179269e-01  -3.5797633973575821e-01  -5.4129644563021195e-01  8.6369752963613888e-01  -7.2919140754374900e-01  1.6000085648148957e-01  4.6164432230573321e-01  2.3978096131521706e-01  -2.4773424025249882e-01  3.4532252539022001e-01  -6.7465496422226934e-01  1.1439362429695417e+00  8.4497306572428310e-01  1.0092447644896512e+00  -3.5102806640687051e-01  -2.2355661237083463e-01  1.0751182661963057e+00  1.0952467214135977e+00  1.1303656164471838e+00  1.1715031695584173e-01  -8.5693941456440759e-01  9.6836385034746286e-01  -4.1884844692981821e-01  -6.2772363416073285e-01  -5.0984473818086129e-01  1.1020609556645031e+00  -5.1319298344491684e-02  1.1544352139942959e+00  -1.4967442820926208e-01  -2.4789099438179316e-01  -6.3552186326471904e-01  8.5244987833867525e-01  -6.9612224782692878e-01  -5.6644357806146162e-01  -5.7743774882375354e-01  5.7732760943107508e-01  -3.8939715072535824e-01  5.0901808020665307e-01  9.9592971119346108e-01  1.0866304698128029e+00  -2.5117144996813945e-01  -3.4935838699476940e-01  -4.0239957887180394e-01  9.8402759774126680e-01  6.8381371045500783e-01  -7.1766848941302852e-01  1.0693276251218657e+00  1.1454438286886977e+00  5.5313086190156857e-01  3.0128507206531396e-01  -4.0447800353964530e-01  -8.0630707668995616e-01  6.7031445519119193e-01  1.1170519089824580e+00  -7.9737898221523662e-01  -6.3440304090337440e-01  7.3672579624954182e-01  1.0102295551010072e+00  -2.4183025901286659e-01  -8.1991910173911919e-01  -7.5345536747191100e-01  -7.0192936177895471e-01  -8.3525128306895202e-01  5.5658634632449433e-01  5.8149808430567518e-01  3.6222325414983450e-02  1.4523713526247317e-01  -6.3369454777226863e-01  -6.7539676827425610e-01  7.2057162973179212e-01  1.5361481339360528e-01  -7.2160607750629480e-01  -6.8565621557956979e-01  1.0945660816777465e+00  3.7470120091056713e-01  -5.85493