<?xml version="1.0"?>
<VTKFile type="UnstructuredGrid"  version="0.1"  >
<UnstructuredGrid>
<Piece  NumberOfPoints="15681" NumberOfCells="30848">
<Points>
<DataArray  type="Float64"  NumberOfComponents="3"  format="ascii">0 1 0  0 0 0  1 0 0  1 1 0  0.5 0 0  1 0.5 0  0.5 1 0  0 0.5 0  0.5 0.5 0  0 0.25 0  0.25 0 0  0.25 1 0  0 0.75 0  1 0.25 0  0.75 0 0  1 0.75 0  0.75 1 0  0.7083333333333333 0.2916666666666667 0  0.2916666666666666 0.7083333333333334 0  0.375 0.25 0  0.75 0.625 0  0.2569444444444444 0.4652777777777778 0  0.5366379310344828 0.7535919540229885 0  0.1875 0.1875 0  0.8125 0.8125 0  0.869047619047619 0.375 0  0.1450441919191919 0.6052714646464646 0  0.375 0.8690476190476191 0  0.5526960784313725 0.1825980392156862 0  0.8385416666666666 0.1614583333333334 0  0.1614583333333333 0.8385416666666667 0  0.6736111111111112 0.4652777777777778 0  0.1367521367521368 0.3477564102564102 0  0.6570970491253563 0.8648656830417855 0  0.5102479397556124 0.3386260301221938 0  0.3654513888888889 0.5737847222222222 0  0.6929750044954185 0.1362784921584263 0  0.388576102743835 0.411911725237599 0  0.6091269841269842 0.5942460317460317 0  0.875 0.6875 0  0.427278890279516 0.119889445139758 0  0.8544456845238095 0.5213913690476191 0  0.125 0 0  0 0.125 0  1 0.875 0  0.875 1 0  0.1280008648150532 0.4769292340226777 0  0.2695382451711197 0.3321750950221553 0  0.7031567235715964 0.7447810921428012 0  0.625 0 0  0.375 0 0  0.125 1 0  0.875 0 0  0 0.375 0  0 0.625 0  1 0.375 0  0.375 1 0  1 0.125 0  0 0.875 0  0.625 1 0  1 0.625 0  0.2979288363930608 0.1201429454643536 0  0.410919540229885 0.7484605911330049 0  0.5325041980395562 0.878905151526474 0  0.4831670727569156 0.6331060043826487 0  0.1735997378973042 0.7204747378973043 0  0.2534919507575758 0.5772372159090909 0  0.2633928571428572 0.8876488095238095 0  0.8199404761904761 0.2730654761904762 0  0.75830270586982 0.3919383189517417 0  0.5750282248382511 0.4237522353023667 0  0.6008360210023379 0.2794828358598495 0  0.08163442644334186 0.6821295860397322 0  0.08333333333333333 0.1875 0  0.2028380815996574 0.08844602719988583 0  0.2766521142611967 0.2325436572164097 0  0.90625 0.78125 0  0.890625 0.890625 0  0.7545696325008384 0.8973565441669461 0  0.5625 0.08086590340834317 0  0.09077380952380953 0.09077380952380952 0  0.4610923478694773 0.209034015149656 0  0.7542527598351648 0.5248380520595106 0  0.6459235536037465 0.3619913988405765 0  0.7560381768882634 0.20506142233852 0  0.07073252688172042 0.8125 0  0.0924753097241701 0.9078102849914793 0  0.9292674731182795 0.1875 0  0.9075246902758297 0.09218971500852073 0  0.8125 0.07073252688172045 0  0.2400955776842301 0.7869705776842302 0  0.9121050213379069 0.2781978201831695 0  0.7916878157143976 0.7239689078571988 0  0.9345238095238094 0.4375 0  0.4375 0.9345238095238095 0  0.3725616989755203 0.6651895248862173 0  0.06536271996350887 0.5625 0  0.9348362560379583 0.5625 0  0.456646798987055 0.8277247094351965 0  0.1875 0.9355758238725954 0  0.6169761231634859 0.6939779188977889 0  0.6226854751147515 0.7827911461419014 0  0.3305695598137626 0.7901697871282585 0  0.5865305325818898 0.5101085479043448 0  0.6622701297028378 0.2177663989757395 0  0.1354166666666667 0.2591702279202279 0  0 0.3125 0  0.2094429575680048 0.3936361846162499 0  0.836666296419157 0.607917407161686 0  0.6875 1 0  0.214261555450504 0.6492551722020035 0  0 0.4375 0  0.07731537126068377 0.40625 0  0.3427725432967068 0.4879566233699599 0  0.3550792513951871 0.3331953632609953 0  0.4462473953896857 0.2887834789342508 0  0.4747801464819794 0.417386052030127 0  0.8229836475148948 0.4443292349237342 0  0.7322605135514757 0.8199240278289671 0  0.6756431877205955 0.5468989748126787 0  0.1968419507215863 0.5194573482612496 0  0.3285590277777778 0.9345238095238095 0  0.8125 1 0  0.4198917601920009 0.5134893045331258 0  0.5232405503206691 0.2595791787880157 0  1 0.9375 0  0.1987510870015086 0.3025185951894431 0  0.5625 1 0  0.6005390654136388 0.9228110509230952 0  0.6411254848194414 0.07704872765442942 0  0.3357233162523242 0.1855113224530532 0  0.6730653396610877 0.6393887462324165 0  0.310966987234063 0.6240019765311626 0  0.7368737836204349 0.07457755202327881 0  0.6192316414418171 0.1485238406378594 0  0.5432429670607106 0.678552703844006 0  0.4754371679695679 0.7103946803120881 0  0.07501324890749672 0.3043839897335739 0  0.5358146975860403 0.5688321463205916 0  0.3115271739500156 0.3982137365971444 0  0.3625191397122174 0.0767854603650549 0  0.5024029442563831 0.1264128223758444 0  0.4375 0 0  0.4699946908887376 0.06379961173775725 0  0.9375 0.71875 0  0.9272105898044465 0.635671179608893 0  0.9375 1 0  0.6690971819568612 0.9331530898202766 0  0.1073454944778885 0.7499206387638554 0  0.8699082999280406 0.2232403652524313 0  0.5773118091863964 0.3548027349159383 0  0.1354166666666667 0.1428571428571428 0  0.3125 0 0  0.8241684193077341 0.9257452995055244 0  0.4352314948354036 0.3586940847489378 0  0.4351301473778832 0.5819726043539077 0  0.8073232928518163 0.3419398170341962 0  0.7775949246947366 0.1298519409204575 0  0.6875 0 0  0.7413513991851041 0.457933324954483 0  0.939453125 0.841796875 0  0.5630355154606987 0.8171875156478349 0  0.9345238095238095 0.3461466592368577 0  0.9375 0 0  1 0.0625 0  0.0625 1 0  0 0.9375 0  0.06552178593177167 0.4969053669623468 0  0.1424866619031703 0.4130277709291224 0  0.1275287182444726 0.5422946908002588 0  0.2637686595586339 0.06413888464529549 0  0.2524263535491086 0.1697437503243817 0  0.7367218397988525 0.6888573970660841 0  0.0625 0 0  0 0.0625 0  0.8463594539285995 0.7578283617857982 0  0.3128751192101563 0.2851997374369947 0  0.4015281788351144 0.1806421385113692 0  0.1910251795116588 0.4553332197174453 0  0.287797471442006 0.5222621440543902 0  0.3962628745986055 0.8097380085535307 0  0.3505895299554843 0.7304878890838692 0  0.5019151500495276 0.9356042615328103 0  0.9374389419410134 0.4999931039076005 0  0.3125 1 0  0.1875 1 0  1 0.5625 0  0.4375 1 0  1 0.3125 0  1 0.4375 0  0.8125 0 0  1 0.1875 0  0.5625 0 0  0.1875 0 0  0 0.1875 0  0 0.5625 0  0 0.6875 0  0 0.8125 0  1 0.6875 0  1 0.8125 0  0.8021696218581627 0.6612893947866073 0  0.06154922295426143 0.6239401126946708 0  0.9359375 0.9359375 0  0.4666158024849896 0.7691515918155014 0  0.2318201265217025 0.7064974250277525 0  0.1565954253579966 0.6635489312486841 0  0.1598132503680848 0.7787147500325552 0  0.3146529991605639 0.8510876378205265 0  0.1461873209418733 0.05982804528877814 0  0.06109554988524315 0.2446551776247686 0  0.8054950308560754 0.5564226538848541 0  0.470541749491976 0.8853316336952531 0  0.6948472567465137 0.4042308563372457 0  0.8802828472348889 0.4658893256343853 0  0.6788075634946739 0.7974194205806069 0  0.2155048659603867 0.2428201584940968 0  0.8131223143423806 0.2132171049028394 0  0.4330798005432235 0.6671274900735726 0  0.6015279126162613 0.2187368078743274 0  0.8061636571464289 0.8703766630361714 0  0.7008230445061776 0.3478568388444072 0  0.8638466246958771 0.3147095987735538 0  0.204801534004265 0.8789209409594009 0  0.2449006736431132 0.9424182882803838 0  0.7611268409371427 0.2643056884799992 0  0.7552800864046191 0.7678006649959446 0  0.5983639638906616 0.864113435029236 0  0.1956559506814437 0.577281203577426 0  0.3527670268164207 0.1320469097565204 0  0.7530364577483248 0.3262386077083089 0  0.4535919187979363 0.4690107087451527 0  0.8824869791666666 0.8336588541666666 0  0.8814453125 0.9451171875 0  0.5582987942628019 0.622421666543858 0  0.6817532446064828 0.6939001801354731 0  0.3830295138888889 0.9450968952922078 0  0.4140603937012541 0.05211333372716105 0  0.5535864501303013 0.3060591985391672 0  0.6560130086346878 0.2729726562211558 0  0.890203140221684 0.5948314305427268 0  0.7043857725999024 0.593980890020804 0  0.5105843922695152 0.8016828014338627 0  0.05365910753708378 0.7315110031682004 0  0.616904573672261 0.4621186633436136 0  0.5338511646455415 0.387875898899613 0  0.5231769258947843 0.4477682463140762 0  0.650302973237622 0.7370722302085519 0  0.3927483139621257 0.4662414504529014 0  0.8034595960585199 0.4972538342758211 0  0.7738337841682438 0.9496376207663251 0  0.7193737507158268 0.954685447650112 0  0.482525916480686 0.5528257169991676 0  0.2533501157346781 0.2809495420003238 0  0.3118487924482243 0.5702930126570319 0  0.6257598847669529 0.4104163315430518 0  0.1354166666666667 0.1955605158730158 0  0.04166666666666666 0.15625 0  0.3956448985530264 0.6174149462065157 0  0.8102897701818546 0.3938784238208349 0  0.2641154190013625 0.8344469561943118 0  0.642852220770013 0.5068794586563659 0  0.05271458179508221 0.355846947336007 0  0.7021551360070266 0.8921457280225779 0  0.5692125776683765 0.1328512638850284 0  0.5206162811937602 0.04865158770992991 0  0.6001838442201555 0.04540556991297563 0  0.2597716608242787 0.4118346398477178 0  0.4040584599473195 0.3179589136784675 0  0.1480337679295207 0.8941560631483065 0  0.1344356707112281 0.9466251177415842 0  0.7114696411829317 0.4983917389078826 0  0.7585704698442475 0.5751926345944629 0  0.2189131956390871 0.04022068508159698 0  0.2476935455192043 0.1123642267635843 0  0.185995005654517 0.1365524537205238 0  0.6223414373308711 0.643380839165121 0  0.5732602596637543 0.7190051747306219 0  0.268358222364537 0.6586246524467934 0  0.3265879848129173 0.2369791782191225 0  0.1267095595787346 0.7034787238999181 0  0.1115202922226038 0.6421997933884982 0  0.3128688392940203 0.07260997451790079 0  0.550724900485678 0.9253360991633187 0  0.7142608810459105 0.2384904702214873 0  0.7045869185243887 0.1871826897887429 0  0.890625 0.734375 0  0.953125 0.765625 0  0.2111812642821677 0.8286209446459138 0  0.9590293078204457 0.09375 0  0.953431269039847 0.1435719386408004 0  0.04097069217955424 0.90625 0  0.04656873096015299 0.8564280613591996 0  0.1078743037981226 0.8541621766048062 0  0.8921256962018773 0.1458378233951939 0  0.8521576979194619 0.1084496634207678 0  0.8655663982740958 0.05464346096571447 0  0.04005659640905543 0.09375 0  0.1001448316533417 0.0424677624422826
[...]
<PointData  Scalars="f_18276"> 
<DataArray  type="Float64"  Name="f_18276"  format="ascii">-4.8175367410171699e-01  -4.8175367410171699e-01  -4.8175367410171699e-01  -4.8175367410171699e-01  -4.8175367410171699e-01  1.5182463258982830e+00  1.5182463258982830e+00  -4.8175367410171699e-01  1.8135732789380712e-01  -4.8175367410171699e-01  -4.8175367410171699e-01  5.1824632589828290e-01  -4.8175367410171699e-01  5.1824632589828290e-01  -4.8175367410171699e-01  5.1824632589828323e-01  5.1824632589828323e-01  2.5050926480106145e-01  2.5003287332245533e-01  -3.1631225435957439e-01  1.4958884246563087e+00  -3.0260819517759274e-01  1.2595450917964037e+00  -4.1408830980064487e-01  1.0964507759331266e+00  1.0046171462920126e+00  -3.2429307386690109e-01  1.0035752796866573e+00  -3.0362060396557217e-01  -1.0512942896821287e-01  -1.0647676264518291e-01  7.7056663179969320e-01  -4.2559360396421114e-01  1.4391065797215450e+00  -1.4207774018310104e-01  1.5605757617168767e-01  -2.7996665232251833e-01  -1.3712394351648452e-01  1.0489908049709740e+00  1.3596030966897317e+00  -4.3799235784578916e-01  1.4206486754438679e+00  -4.8175367410171699e-01  -4.8175367410171699e-01  -1.8886045528826434e-01  -1.8886045528826434e-01  -4.3849471299306481e-01  -3.2182413785275227e-01  1.5229374528939179e+00  -4.8175367410171699e-01  -4.8175367410171699e-01  -1.8886045528826456e-01  -4.8175367410171699e-01  -4.8175367410171699e-01  -4.8175367410171699e-01  1.2253531070848305e+00  1.2253531070848305e+00  -1.8886045528826456e-01  -4.8175367410171699e-01  1.2253531070848307e+00  1.2253531070848307e+00  -4.3005982588337621e-01  8.3819217822172998e-01  1.4837378657631715e+00  6.7231810995176622e-01  -1.5820524817007081e-01  -1.2738324795532352e-01  4.5246338226605626e-01  3.9366622719943106e-01  7.9607277190797510e-01  3.1169807209109041e-01  -6.0272762829664331e-03  -3.9404312027561300e-01  -4.4762368469572383e-01  -4.5242479128388158e-01  -3.7408397865607290e-01  8.1330753394604405e-01  2.7312580216701521e-01  9.8478899270877607e-01  -4.4615576223724707e-01  -4.5627325781991224e-01  -3.5623057296189814e-01  1.2026158616746205e+00  3.7495524726927115e-01  -1.7206149939831931e-02  -3.8851218770257751e-01  -3.2206033907477100e-01  9.0250260386838879e-02  -3.2222089814534466e-01  -3.8743649069137781e-01  1.7512595374626194e-01  5.6969431759397804e-01  1.4445478475744433e+00  1.3565083159504978e+00  1.3569388920741920e+00  4.7402007840593641e-01  -4.5626597187842893e-01  1.5027901666645407e+00  1.2123702907586298e+00  9.1888219631304793e-02  1.3986548284821581e+00  1.5241414139407967e+00  6.0662465811407729e-01  5.7969608218762980e-01  -8.1658914971024732e-02  -4.2428127573277141e-01  -4.8175367410171699e-01  -3.6018492474781144e-01  1.5224621229609341e+00  9.0092975826337329e-01  -1.1329789074081137e-01  -4.8175367410171699e-01  -4.5942232479156930e-01  -1.7369640110334644e-01  -2.4696488289269303e-01  -2.5492519775607558e-01  -2.4217200028980906e-02  1.1667099602744071e+00  1.3654184149765647e+00  1.0900201586704363e+00  -3.6151334690977421e-01  8.9105780272173207e-01  1.3556289353319301e-01  6.1115856035241722e-02  -2.5443754998063045e-01  -4.0563320661300351e-01  -3.8950501175432667e-01  1.4421258584095700e+00  1.4719587874232358e+00  -4.2135841109897165e-01  -3.8543030835642206e-01  1.4028419501134348e+00  1.6171035705016060e-01  -3.9432254713751808e-01  -2.9316213125687185e-01  1.0830987892480175e+00  9.0055359304408400e-01  -4.5094760510049708e-01  6.4795608055454146e-01  -2.3408703081402946e-01  -4.5201678265103018e-01  -4.4485968093834183e-01  -4.8175367410171699e-01  -4.6936802035534447e-01  9.9930219796329711e-01  1.3803824345346052e+00  -4.0563320661300351e-01  1.2504383747151220e+00  -3.3124867726539931e-01  2.1033000643144409e-01  1.2907499286400184e-01  -4.4386501191473393e-01  -4.8175367410171699e-01  4.6171634935470057e-01  -1.5483783937978657e-01  3.7053495895150362e-01  6.9805548567415532e-01  -2.5094803265139071e-01  -4.8175367410171699e-01  9.7686120660329567e-01  2.8466967833954016e-01  1.4732213883895569e+00  9.7547630676435448e-01  -4.8175367410171699e-01  -4.0563320661300373e-01  -4.0563320661300373e-01  -4.8175367410171699e-01  -4.7476827555359247e-01  -4.2720643072985309e-01  -4.0022878560374858e-01  -4.5275338126378523e-01  -4.1573401147256350e-01  1.5397352300943126e+00  -4.8175367410171699e-01  -4.8175367410171699e-01  1.1853181121069982e+00  -3.2257270909643471e-01  -3.8701918300705557e-01  -3.6601196231863814e-01  -2.1274619803984304e-01  9.4636536135184401e-01  5.5109142483962725e-01  1.4874133141568175e+00  1.4856620523694601e+00  9.0092975826337274e-01  1.3556289353319317e-01  1.4421258584095700e+00  1.4421258584095697e+00  9.0092975826337274e-01  1.4421258584095697e+00  -4.8175367410171699e-01  1.3556289353319317e-01  -4.8175367410171699e-01  -4.8175367410171699e-01  -4.8175367410171699e-01  -4.8175367410171699e-01  -4.8175367410171699e-01  -4.8175367410171699e-01  9.0092975826337329e-01  1.3556289353319301e-01  1.5140397029240489e+00  -4.3590368838927152e-01  -1.8218347134379276e-01  1.0758855401208116e+00  2.1369448166698182e-02  -2.5645598272591674e-01  -1.5028790975553910e-01  6.6626011258061568e-01  -4.6192986571937605e-01  -4.6220524178017736e-01  1.4439699740403669e+00  1.3664909857432017e+00  6.6172354242073572e-01  1.3501322802818168e+00  1.5074546085138054e+00  -3.9557967393789983e-01  9.8014835090517907e-02  6.6087164981535584e-01  -1.7014094430701662e-01  8.5431063676053864e-01  4.5895139546747676e-01  6.8799015605199232e-01  1.2574742287294316e-01  4.1190337655181958e-01  2.4536488778403057e-01  1.4264929230849286e+00  1.5114949815033971e+00  -2.6334727761164212e-01  -4.2678519472467386e-01  5.0376117615817750e-01  5.1978510989001525e-02  6.3914582314978474e-01  3.7736298556581074e-02  9.6731999874701891e-01  1.5059871680182668e+00  1.1812007893469760e+00  -4.7079581677723198e-01  -5.6492352180462266e-02  8.0299716818004657e-02  1.5011584822193842e+00  1.3382271049147474e+00  1.2666632747624915e+00  -4.2899485912731877e-01  5.7766975476325366e-01  7.9301384192098173e-02  1.7771908885058002e-01  1.5058719076973772e+00  -6.9370746619304396e-02  1.2300823975702644e+00  6.3619459481905316e-01  9.2300256845972095e-01  3.7267452998385620e-01  -3.6499197052091559e-01  5.3193325215110214e-03  4.5884446340713791e-01  -4.3571232187800790e-01  -4.6342005959122196e-01  3.9279815152760450e-01  9.4001613217398772e-01  3.6768021526533717e-01  7.7459878100910551e-01  -4.6535375094176368e-01  1.2386333358936541e+00  -3.8378000317236344e-01  -4.7282230778392381e-01  -4.5856476509513922e-01  -2.9680088327263604e-01  -2.2614847341759323e-01  -1.2823209738819261e-01  -1.6642003330082034e-01  9.6012826768673754e-01  1.4015884687996500e+00  -4.6447905229042069e-01  -4.3953740777427724e-01  -4.3243457870515817e-01  1.2802982931950795e+00  1.3117536352685115e+00  7.1868582939918171e-02  -3.4803967116422468e-01  -3.0283741281841597e-01  -3.6600571890098904e-01  -4.4682019189720007e-01  1.5158491802964913e+00  5.4244550544839155e-02  -1.2837835995431887e-01  1.1203771235956386e+00  6.6531166151024057e-01  9.7890379054409893e-02  -3.1324838148021428e-01  -1.1964231989544194e-01  -4.4111949674382656e-01  -4.3629800694651860e-01  -2.9096880469792530e-01  -1.3838550819367670e-01  -2.8802524259108248e-01  -4.2498127940686842e-01  -4.6923376800438654e-01  -4.6821662135898551e-01  -4.2711446159131305e-01  -3.4076711128134668e-01  1.2100496856602905e+00  -4.7300939939153930e-01  -3.8434536291857835e-01  -4.0842983798551608e-01  -3.9391635064784225e-01  -3.3539185208396549e-01  -2.8766165976879365e-01  1.1892458995502480e+00  -2.2322414014826825e-01  -4.5511425268115219e-01  3.8237006767400084e-01  -4.4206889630179019e-01  -4.4747781038816370e-01  7.7105513642339951e-01  -4.5087417662457045e-02  -2.4114196471950549e-02  3.3339293966404282e-01  1.7917892389400442e-01  1.4720401249820332e+00  -2.2716481638834821e-01  8.9636971921212005e-01  -2.0243407925542842e-01  -3.8179347902048566e-01  6.5334698661647117e-01  3.7931352530637108e-01  4.4700755358450422e-01  -4.7007643801520799e-01  1.2047947060250797e+00  1.3443026025428488e+00  -4.5527296123640548e-01  1.2320221629992600e+00  -4.6635549978693930e-01  -3.9667132304501351e-01  -3.2523598289595329e-01  1.4237495600021322e+00  1.3014831178357757e+00  1.4387382939757953e+00  -1.0468824424435283e-01  7.5295889554727014e-01  8.0329759019468183e-01  1.4750363949189769e+00  -4.1650900976019223e-01  -4.7677500158290342e-01  1.4156844526509165e+00  1.4971759359985066e+00  -1.8900380802389535e-01  -4.6480018705834247e-01  2.6918622023157129e-01  1.1361490214185173e+00  -4.5850285059343493e-01  1.1880566811733944e+00  1.5313344534568436e+00  3.9286764149018888e-01  6.9816556973936461e-01  -4.8490470177869255e-02  -4.1473729161640543e-01  -4.3746017786885766e-01  -4.2184773377867074e-01  -4.6540572779892275e-01  -4.7765632102274502e-01  1.5132546310228754e+00  1.4719763012222551e+00  1.5144294960263649e+00  -4.4590853106924594e-01  -3.9510829300142158e-01  1.5011358024224735e+00  1.5019572206760143e+00  -2.1302239417549482e-01  1.2273751491363698e-01  1.4222378000211766e+00  4.6349042096844362e-01  -4.7179000514601593e-01  6.2290666076029966e-01  1.1625297875322542e+00  -4.8558214019587050e-02  -4.4702931531989332e-01  -1.0197245077702445e-01  1.4162401443237995e+00  -3.2466860016661425e-01  -2.8518745343386342e-01  -2.9767110318305412e-01  -1.7456267711515958e-01  4.7165080137886883e-01  1.2478754947030932e+00  7.9834320949379689e-01  5.4354369995084728e-01  1.1178550127335793e+00  2.5445266200097588e-01  -3.9351821810586790e-01  -3.5811494557789497e-01  -3.1421383754720350e-01  -2.5209682196187883e-01  8.3944200888110165e-01  -4.3448810476930150e-01  -1.9773528324737916e-01  9.2583574716065420e-01  8.1172812996949817e-01  1.2590951884154364e+00  -4.6838387517635943e-01  -4.6942493018357567e-01  1.0024753855685011e+00  1.0908715851868711e+00  7.0594896541761165e-01  1.2967902256474266e+00  1.3413049827780803e+00  -5.7763043880716534e-02  -3.5388134287390838e-01  -4.8175367410171699e-01  -1.2951628766034232e-01  -2.1661272954644092e-01  -4.0277625593123456e-01  1.0865566645373865e+00  -3.9637832232683778e-01  -2.8618368329972423e-02  -3.2159865316647995e-01  3.2315600388215471e-01  -4.3362692253483359e-01  1.4116868438622973e-01  1.5718449241235413e-01  1.0125859645653115e+00  -1.9526603228985812e-01  -2.7912259085636609e-01  1.4998380646350273e+00  1.4725308215933000e+00  -4.2228152979605249e-01  -2.3750506055201467e-01  1.1843714469331626e-01  1.4604217839034570e+00  1.4803121519681512e+00  1.2793800032377209e+00  1.4716197947084027e+00  -4.8175367410171699e-01  1.7456416559293673e-02  5.0032100818041358e-01  6.4180542817756814e-01  1.0565539486372151e+00  -4.5267061120264512e-01  4.3660328268280757e-01  -4.7198904336282610e-01  -4.6996328851408414e-01  3.3403981521126958e-01  -3.5671127766486771e-01  -4.5038488640396762e-01  -1.1163214788094857e-01  -3.1557346388460339e-01  -2.2424456636114423e-01  -2.8309336069435770e-01  1.4140515646468048e+00  -1.1548252172517193e-01  -4.2588613912767048e-01  -4.8175367410171699e-01  7.7241516378098429e-01  -4.7242401691505537e-01  1.5047800737421548e+00  -2.9478898437390844e-01  5.1341988378706716e-01  8.7740725140174158e-01  1.3497159382008284e+00  -4.0800437703503245e-01  2.6906485224667570e-01  -4.6364611740495948e-01  -5.3821206812522088e-02  -4.5612403329663337e-01  -3.4074790048912368e-01  1.0610058236226279e+00  -3.8664740780269197e-01  -4.8175367410171699e-01  -4.5209546703927306e-01  -2.0135636829576664e-01  -3.7349376482134566e-01  -3.5459063927483714e-01  -4.0105879324476812e-01  -4.4634235344128415e-01  -3.8513271584726555e-01  1.0543969029394256e+00  1.0733287087516146e+00  8.4825460474907066e-01  -4.5579230783528790e-01  -3.7323907121319277e-02  3.1794853028307984e-01  7.2421338526311718e-01  2.9776752725954492e-01  -3.5757868691924011e-01  1.0738165589178852e+00  -3.1866491034802003e-01  -4.6140465220604276e-01  -2.7530085232517254e-01  -4.2079259573242278e-01  2.5188397078989000e-01  2.6831174851978225e-03  2.9504912097150421e-01  1.5036315019089168e+00  3.1373521863155635e-01  1.0738165589178850e+00  1.4654743643241837e+00  1.1017396548319771e+00  1.2150087234340587e+00  -3.9717124347657384e-01  8.5140214797465608e-01  2.0602587371270001e-01  6.1436151029049946e-01  6.9365746444785617e-02  -4.8175367410171699e-01  3.2315600388215471e-01  1.9666534971249858e-01  1.3284979408284237e+00  -4.6142820386404748e-01  -3.7882736601358064e-01  -2.3980121522101588e-01  6.6023609499657554e-01  3.7731101054094274e-01  -4.1580098837291996e-01  1.4410405741629713e+00  -3.8240268330049892e-01  1.1309710983299730e+00  -4.8175367410171699e-01  -1.0862699216803846e-02  2.6447137286277188e-02  2.2392690392179851e-01  -4.7775943149209810e-01  -4.3383211488335005e-01  2.7451718942686493e-01  7.8145902070272011e-01  6.3420946573443626e-01  4.9271178395834364e-01  8.1432254494124157e-01  8.0606353704371414e-01  1.5239985075115199e+00  2.1869190730614771e-01  -4.4979511606507533e-01  1.2820628667523513e+00  2.7653847594720687e-01  -4.8051245425928835e-01  -3.1180356866866149e-01  -4.1269869631763523e-01  7.1333664791441120e-01  8.8197462423474826e-01  5.8345884897388289e-01  7.7843818419217758e-01  -2.3851746918123495e-01  7.7052812606485455e-01  8.9728306713044970e-01  1.0238461446345384e+00  -4.6253895450494742e-01  1.2473663167668023e+00  -4.3171990959832535e-01  -3.9885739716253393e-01  5.2041209121242860e-01  1.0611485070960687e+00  1.3642033273617886e+00  2.7228649027254248e-01  -4.1314415804135590e-01  8.6324378696755322e-01  2.9429310899304371e-02  3.5741325874864882e-01  1.6022173375201881e-02  2.0751347242362453e-01  -2.0853754486097223e-01  -3.7026930116375084e-01  1.3803686374336916e+00  1.4924490071234686e+00  -3.8787567923072602e-01  1.5142054071726700e+00  1.2212776561257872e+00  -4.3406307247752712e-01  -4.4707361104454002e-01  -4.4980374936934764e-01  9.4752180646191597e-01  -4.3355850532953322e-01  1.4398595677306452e+00  -4.8175367410171699e-01  4.4723458094207767e-02  5.9258097997166970e-01  -4.0623359489702954e-01  4.7072654924990347e-02  -4.2704763128062390e-01  1.5016411971837322e+00  -2.5166641002588985e-01  1.1063755559366040e+00  1.0435288874624558e+00  2.4793902044136085e-01  -4.3446207758327743e-01  -1.7020505765855073e-01  9.0834779501629093e-01  1.4346632237089392e+00  1.1022103687405724e+00  1.5326149833087856e+00  1.1404848248808508e-01  3.2315600388215471e-01  -4.3099219467024524e-01  3.5795947842034698e-01  -4.3464256109363852e-01  -1.8246415766134999e-01  1.4622317637694400e+00  -4.3360935978071963e-01  3.5648254368526436e-02  -3.6492762397906114e-01  1.5120894780944372e+00  6.3648642656854815e-01  -4.3391205820155532e-01  -4.4853945005241758e-01  -4.7060956086890698e-01  -4.4625784521761874e-01  1.3962392889359740e+00  1.3497159382008284e+00  5.2342508415559430e-01  1.8631029771490668e-01  -3.7666538315616804e-01  1.4823932438658418e+00  -4.6308957874198781e-01  1.5221825099478190e+00  1.4272505900026706e+00  -4.8175367410171699e-01  1.4216732442094551e-01  1.0242045143429184e+00  5.4139287179382600e-01  -1.7594697896892450e-01  5.9765276216475960e-01  1.3499175280671407e+00  3.8250395581308501e-02  1.4427843351924745e+00  1.4935266160050960e+00  -4.8175367410171699e-01  -4.8175367410171699e-01  1.0995269823525962e+00  -4.8175367410171699e-01  3.3203262326866774e-02  -4.6687979221405645e-01  -3.7323907121319277e-02  -4.8175367410171699e-01  -1.8718734617790267e-01  -3.3475259552250519e-01  -3.5028152897784293e-01  -2.0120752742627637e-01  -4.1815376373905033e-01  -4.2875034004532897e-01  5.0268714206996468e-01  3.2315600388215471e-01  -4.7045381149099075e-01  -4.5717689440337589e-01  -4.4890760393694917e-01  1.2343967750423224e+00  -4.5951522444204224e-01  -3.3981682247310774e-01  -3.4466428103400448e-01  1.0840940298350190e+00  1.5015716686772456e+00  6.4472402516652372e-01  8.1897149191941221e-01  7.1430936063935291e-01  4.1185977149012276e-01  1.1052517724422104e+00  -4.3853279425696884e-01  1.2257357645459348e+00  2.3005431895550663e-01  1.5148396060914855e+00  1.5093683814820966e+00  -3.7841339138917385e-01  -7.1043614960822205e-02  -4.8189926224771468e-01  1.4784377449295871e+00  1.3154880488964371e+00  -4.8175367410171699e-01  -3.1322328640426222e-01  1.3497159382008284e+00  -3.7323907121318833e-02  -4.8175367410171699e-01  -4.6253895450494742e-01  1.4990316063015134e+00  -4.8175367410171699e-01  7.1333664791441120e-01  1.0738165589178852e+00  -4.8175367410171699e-01  -4.8175367410171699e-01  1.4990316063015134e+00  1.4990316063015134e+00  1.3497159382008284e+00  -4.8175367410171699e-01  -4.8175367410171699e-01  -4.8175367410171699e-01  -4.8175367410171699e-01  -4.8175367410171699e-01  -4.8175367410171699e-01  -4.8175367410171699e-01  -3.1322328640426222e-01  -4.8175367410171699e-01  -4.8175367410171699e-01  -3.1322328640426222e-01  -4.8175367410171699e-01  -4.8175367410171699e-01  -4.8175367410171699e-01  -4.8175367410171699e-01  7.1333664791441165e-01  1.4990316063015134e+00  -3.1322328640426222e-01  -4.6253895450494731e-01  -4.6253895450494731e-01  -4.8175367410171699e-01  -4.8175367410171699e-01  1.0738165589178850e+00  7.1333664791441165e-01  -3.7323907121318833e-02  3.7016049575526688e-01  1.4129090254145171e+00  5.0962666933361089e-01  8.9258773005970682e-01  -1.1971677582755696e-01  1.5070597497015485e+00  -3.7601121045045044e-01  -3.8867363470476790e-01  -4.1035278018083543e-01  1.1994272655079907e+00  -4.7401475911172952e-01  -4.6879127886954991e-01  -1.7558560180809629e-01  -4.4827566278209441e-01  -4.1765552659148619e-01  -4.6487686251441707e-01  -4.6229806331762124e-01  -4.5047650722001520e-01  -4.5254017557453163e-01  1.3371999824701262e+00  1.5305825414635916e+00  1.3848442577739128e+00  -3.6036862354153193e-01  1.4799546943674893e+00  -3.9229628810135914e-01  -1.5030863539642881e-02  -4.0425922174972806e-01  8.3638601707805127e-01  1.2317274929452673e+00  -2.5922123119990054e-01  8.0558333190841369e-01  -2.6415533258889734e-01  -1.3566263441511753e-01  2.9657272517978738e-02  -1.6520249756220820e-01  1.2364435498900970e+00  -3.5327808334756333e-01  5.1867279492358465e-01  8.2704113667180834e-01  6.0096968073903723e-01  1.2134322214226170e-01  6.8634710941940746e-01  -3.2869561041638884e-01  1.5098869764438496e+00  1.0668028805798628e+00  1.3815921607565527e+00  9.8065030373363634e-04  1.3286494518540165e-01  1.3694623816482976e+00  1.3769825304790499e+00  1.4925050285719044e+00  4.8274369257115313e-01  -4.7516556041909780e-01  1.2528555846053044e+00  -7.7980316499282859e-02  -2.5157752941657213e-01  -1.5575468524379565e-01  1.4771544864478681e+00  3.2534401300014287e-01  1.5220943708526324e+00  2.0772806032126942e-01  9.8544560738746581e-02  -2.5580014654119732e-01  1.1330717506091124e+00  -3.0340065044741932e-01  -1.9637655070578067e-01  -2.0791549399256729e-01  9.6904695741436575e-01  -7.4410174511108582e-02  8.7924838305742758e-01  1.3417467082117740e+00  1.4357696663460082e+00  1.2986795390017949e-01  3.3508694671241825e-02  -2.1933385138387787e-02  1.3720801454026188e+00  1.0547382363769162e+00  -3.3628885867970215e-01  1.4726202869887863e+00  1.5364061586877733e+00  9.4900685027230969e-01  6.6943397980913510e-01  -6.5486963277565105e-02  -4.5961531923870347e-01  9.4010099149250026e-01  1.5147836856351387e+00  -4.2748309992320743e-01  -2.9226972536282997e-01  1.1132036115126582e+00  1.2630867565137704e+00  6.1840448170652762e-02  -4.6731514604369090e-01  -3.9101889010380475e-01  -3.3308400341088640e-01  -4.4138374035829192e-01  9.3675863942503512e-01  9.6187385994722951e-01  4.2644399279645839e-01  5.0572541075997257e-01  -2.4054046797141013e-01  -3.2565460167649685e-01  1.0073397641591504e+00  4.2578175351477249e-01  -3.7178189417328306e-01  -3.9620243357612772e-01  1.4461509556004191e+00  6.5739155455852216e-01  -2.8993294584498591e-01  -1.9296206608952632e-01  4.5930525240391568e-01  2.4793070685592541e-01 