<?xml version="1.0"?>
<VTKFile type="UnstructuredGrid"  version="0.1"  >
<UnstructuredGrid>
<Piece  NumberOfPoints="15681" NumberOfCells="30848">
<Points>
<DataArray  type="Float64"  NumberOfComponents="3"  format="ascii">0 1 0  0 0 0  1 0 0  1 1 0  0.5 0 0  1 0.5 0  0.5 1 0  0 0.5 0  0.5 0.5 0  0 0.25 0  0.25 0 0  0.25 1 0  0 0.75 0  1 0.25 0  0.75 0 0  1 0.75 0  0.75 1 0  0.7083333333333333 0.2916666666666667 0  0.2916666666666666 0.7083333333333334 0  0.375 0.25 0  0.75 0.625 0  0.2569444444444444 0.4652777777777778 0  0.5366379310344828 0.7535919540229885 0  0.1875 0.1875 0  0.8125 0.8125 0  0.869047619047619 0.375 0  0.1450441919191919 0.6052714646464646 0  0.375 0.8690476190476191 0  0.5526960784313725 0.1825980392156862 0  0.8385416666666666 0.1614583333333334 0  0.1614583333333333 0.8385416666666667 0  0.6736111111111112 0.4652777777777778 0  0.1367521367521368 0.3477564102564102 0  0.6570970491253563 0.8648656830417855 0  0.5102479397556124 0.3386260301221938 0  0.3654513888888889 0.5737847222222222 0  0.6929750044954185 0.1362784921584263 0  0.388576102743835 0.411911725237599 0  0.6091269841269842 0.5942460317460317 0  0.875 0.6875 0  0.427278890279516 0.119889445139758 0  0.8544456845238095 0.5213913690476191 0  0.125 0 0  0 0.125 0  1 0.875 0  0.875 1 0  0.1280008648150532 0.4769292340226777 0  0.2695382451711197 0.3321750950221553 0  0.7031567235715964 0.7447810921428012 0  0.625 0 0  0.375 0 0  0.125 1 0  0.875 0 0  0 0.375 0  0 0.625 0  1 0.375 0  0.375 1 0  1 0.125 0  0 0.875 0  0.625 1 0  1 0.625 0  0.2979288363930608 0.1201429454643536 0  0.410919540229885 0.7484605911330049 0  0.5325041980395562 0.878905151526474 0  0.4831670727569156 0.6331060043826487 0  0.1735997378973042 0.7204747378973043 0  0.2534919507575758 0.5772372159090909 0  0.2633928571428572 0.8876488095238095 0  0.8199404761904761 0.2730654761904762 0  0.75830270586982 0.3919383189517417 0  0.5750282248382511 0.4237522353023667 0  0.6008360210023379 0.2794828358598495 0  0.08163442644334186 0.6821295860397322 0  0.08333333333333333 0.1875 0  0.2028380815996574 0.08844602719988583 0  0.2766521142611967 0.2325436572164097 0  0.90625 0.78125 0  0.890625 0.890625 0  0.7545696325008384 0.8973565441669461 0  0.5625 0.08086590340834317 0  0.09077380952380953 0.09077380952380952 0  0.4610923478694773 0.209034015149656 0  0.7542527598351648 0.5248380520595106 0  0.6459235536037465 0.3619913988405765 0  0.7560381768882634 0.20506142233852 0  0.07073252688172042 0.8125 0  0.0924753097241701 0.9078102849914793 0  0.9292674731182795 0.1875 0  0.9075246902758297 0.09218971500852073 0  0.8125 0.07073252688172045 0  0.2400955776842301 0.7869705776842302 0  0.9121050213379069 0.2781978201831695 0  0.7916878157143976 0.7239689078571988 0  0.9345238095238094 0.4375 0  0.4375 0.9345238095238095 0  0.3725616989755203 0.6651895248862173 0  0.06536271996350887 0.5625 0  0.9348362560379583 0.5625 0  0.456646798987055 0.8277247094351965 0  0.1875 0.9355758238725954 0  0.6169761231634859 0.6939779188977889 0  0.6226854751147515 0.7827911461419014 0  0.3305695598137626 0.7901697871282585 0  0.5865305325818898 0.5101085479043448 0  0.6622701297028378 0.2177663989757395 0  0.1354166666666667 0.2591702279202279 0  0 0.3125 0  0.2094429575680048 0.3936361846162499 0  0.836666296419157 0.607917407161686 0  0.6875 1 0  0.214261555450504 0.6492551722020035 0  0 0.4375 0  0.07731537126068377 0.40625 0  0.3427725432967068 0.4879566233699599 0  0.3550792513951871 0.3331953632609953 0  0.4462473953896857 0.2887834789342508 0  0.4747801464819794 0.417386052030127 0  0.8229836475148948 0.4443292349237342 0  0.7322605135514757 0.8199240278289671 0  0.6756431877205955 0.5468989748126787 0  0.1968419507215863 0.5194573482612496 0  0.3285590277777778 0.9345238095238095 0  0.8125 1 0  0.4198917601920009 0.5134893045331258 0  0.5232405503206691 0.2595791787880157 0  1 0.9375 0  0.1987510870015086 0.3025185951894431 0  0.5625 1 0  0.6005390654136388 0.9228110509230952 0  0.6411254848194414 0.07704872765442942 0  0.3357233162523242 0.1855113224530532 0  0.6730653396610877 0.6393887462324165 0  0.310966987234063 0.6240019765311626 0  0.7368737836204349 0.07457755202327881 0  0.6192316414418171 0.1485238406378594 0  0.5432429670607106 0.678552703844006 0  0.4754371679695679 0.7103946803120881 0  0.07501324890749672 0.3043839897335739 0  0.5358146975860403 0.5688321463205916 0  0.3115271739500156 0.3982137365971444 0  0.3625191397122174 0.0767854603650549 0  0.5024029442563831 0.1264128223758444 0  0.4375 0 0  0.4699946908887376 0.06379961173775725 0  0.9375 0.71875 0  0.9272105898044465 0.635671179608893 0  0.9375 1 0  0.6690971819568612 0.9331530898202766 0  0.1073454944778885 0.7499206387638554 0  0.8699082999280406 0.2232403652524313 0  0.5773118091863964 0.3548027349159383 0  0.1354166666666667 0.1428571428571428 0  0.3125 0 0  0.8241684193077341 0.9257452995055244 0  0.4352314948354036 0.3586940847489378 0  0.4351301473778832 0.5819726043539077 0  0.8073232928518163 0.3419398170341962 0  0.7775949246947366 0.1298519409204575 0  0.6875 0 0  0.7413513991851041 0.457933324954483 0  0.939453125 0.841796875 0  0.5630355154606987 0.8171875156478349 0  0.9345238095238095 0.3461466592368577 0  0.9375 0 0  1 0.0625 0  0.0625 1 0  0 0.9375 0  0.06552178593177167 0.4969053669623468 0  0.1424866619031703 0.4130277709291224 0  0.1275287182444726 0.5422946908002588 0  0.2637686595586339 0.06413888464529549 0  0.2524263535491086 0.1697437503243817 0  0.7367218397988525 0.6888573970660841 0  0.0625 0 0  0 0.0625 0  0.8463594539285995 0.7578283617857982 0  0.3128751192101563 0.2851997374369947 0  0.4015281788351144 0.1806421385113692 0  0.1910251795116588 0.4553332197174453 0  0.287797471442006 0.5222621440543902 0  0.3962628745986055 0.8097380085535307 0  0.3505895299554843 0.7304878890838692 0  0.5019151500495276 0.9356042615328103 0  0.9374389419410134 0.4999931039076005 0  0.3125 1 0  0.1875 1 0  1 0.5625 0  0.4375 1 0  1 0.3125 0  1 0.4375 0  0.8125 0 0  1 0.1875 0  0.5625 0 0  0.1875 0 0  0 0.1875 0  0 0.5625 0  0 0.6875 0  0 0.8125 0  1 0.6875 0  1 0.8125 0  0.8021696218581627 0.6612893947866073 0  0.06154922295426143 0.6239401126946708 0  0.9359375 0.9359375 0  0.4666158024849896 0.7691515918155014 0  0.2318201265217025 0.7064974250277525 0  0.1565954253579966 0.6635489312486841 0  0.1598132503680848 0.7787147500325552 0  0.3146529991605639 0.8510876378205265 0  0.1461873209418733 0.05982804528877814 0  0.06109554988524315 0.2446551776247686 0  0.8054950308560754 0.5564226538848541 0  0.470541749491976 0.8853316336952531 0  0.6948472567465137 0.4042308563372457 0  0.8802828472348889 0.4658893256343853 0  0.6788075634946739 0.7974194205806069 0  0.2155048659603867 0.2428201584940968 0  0.8131223143423806 0.2132171049028394 0  0.4330798005432235 0.6671274900735726 0  0.6015279126162613 0.2187368078743274 0  0.8061636571464289 0.8703766630361714 0  0.7008230445061776 0.3478568388444072 0  0.8638466246958771 0.3147095987735538 0  0.204801534004265 0.8789209409594009 0  0.2449006736431132 0.9424182882803838 0  0.7611268409371427 0.2643056884799992 0  0.7552800864046191 0.7678006649959446 0  0.5983639638906616 0.864113435029236 0  0.1956559506814437 0.577281203577426 0  0.3527670268164207 0.1320469097565204 0  0.7530364577483248 0.3262386077083089 0  0.4535919187979363 0.4690107087451527 0  0.8824869791666666 0.8336588541666666 0  0.8814453125 0.9451171875 0  0.5582987942628019 0.622421666543858 0  0.6817532446064828 0.6939001801354731 0  0.3830295138888889 0.9450968952922078 0  0.4140603937012541 0.05211333372716105 0  0.5535864501303013 0.3060591985391672 0  0.6560130086346878 0.2729726562211558 0  0.890203140221684 0.5948314305427268 0  0.7043857725999024 0.593980890020804 0  0.5105843922695152 0.8016828014338627 0  0.05365910753708378 0.7315110031682004 0  0.616904573672261 0.4621186633436136 0  0.5338511646455415 0.387875898899613 0  0.5231769258947843 0.4477682463140762 0  0.650302973237622 0.7370722302085519 0  0.3927483139621257 0.4662414504529014 0  0.8034595960585199 0.4972538342758211 0  0.7738337841682438 0.9496376207663251 0  0.7193737507158268 0.954685447650112 0  0.482525916480686 0.5528257169991676 0  0.2533501157346781 0.2809495420003238 0  0.3118487924482243 0.5702930126570319 0  0.6257598847669529 0.4104163315430518 0  0.1354166666666667 0.1955605158730158 0  0.04166666666666666 0.15625 0  0.3956448985530264 0.6174149462065157 0  0.8102897701818546 0.3938784238208349 0  0.2641154190013625 0.8344469561943118 0  0.642852220770013 0.5068794586563659 0  0.05271458179508221 0.355846947336007 0  0.7021551360070266 0.8921457280225779 0  0.5692125776683765 0.1328512638850284 0  0.5206162811937602 0.04865158770992991 0  0.6001838442201555 0.04540556991297563 0  0.2597716608242787 0.4118346398477178 0  0.4040584599473195 0.3179589136784675 0  0.1480337679295207 0.8941560631483065 0  0.1344356707112281 0.9466251177415842 0  0.7114696411829317 0.4983917389078826 0  0.7585704698442475 0.5751926345944629 0  0.2189131956390871 0.04022068508159698 0  0.2476935455192043 0.1123642267635843 0  0.185995005654517 0.1365524537205238 0  0.6223414373308711 0.643380839165121 0  0.5732602596637543 0.7190051747306219 0  0.268358222364537 0.6586246524467934 0  0.3265879848129173 0.2369791782191225 0  0.1267095595787346 0.7034787238999181 0  0.1115202922226038 0.6421997933884982 0  0.3128688392940203 0.07260997451790079 0  0.550724900485678 0.9253360991633187 0  0.7142608810459105 0.2384904702214873 0  0.7045869185243887 0.1871826897887429 0  0.890625 0.734375 0  0.953125 0.765625 0  0.2111812642821677 0.8286209446459138 0  0.9590293078204457 0.09375 0  0.953431269039847 0.1435719386408004 0  0.04097069217955424 0.90625 0  0.04656873096015299 0.8564280613591996 0  0.1078743037981226 0.8541621766048062 0  0.8921256962018773 0.1458378233951939 0  0.8521576979194619 0.1084496634207678 0  0.8655663982740958 0.05464346096571447 0  0.04005659640905543 0.09375 0  0.1001448316533417 0.0424677624422826
[...]
<PointData  Scalars="f_18276"> 
<DataArray  type="Float64"  Name="f_18276"  format="ascii">-9.9211470131447754e-01  -9.9211470131447754e-01  -9.9211470131447754e-01  -9.9211470131447754e-01  -9.9211470131447754e-01  1.0078852986855225e+00  1.0078852986855225e+00  -9.9211470131447754e-01  1.3778779404364960e-01  -9.9211470131447754e-01  -9.9211470131447754e-01  7.8852986855223964e-03  -9.9211470131447754e-01  7.8852986855223964e-03  -9.9211470131447754e-01  7.8852986855226410e-03  7.8852986855226410e-03  -2.5978233380959648e-01  -2.5900760300228126e-01  -7.1600796103868636e-01  1.0954737376696890e+00  -6.1875965322608029e-01  9.4776063506973907e-01  -9.0710937764569433e-01  6.0415084133341890e-01  5.5157694716445937e-01  -7.6953457100272060e-01  5.5256408569978233e-01  -6.8926036054166429e-01  -6.0314985180997582e-01  -6.0505542977230442e-01  4.8679883734498325e-01  -8.7542387222531592e-01  9.8424008470496693e-01  -3.7837804230970479e-01  -1.2570344447871248e-01  -7.8149983221947195e-01  -4.2283319088828919e-01  7.5499659320785495e-01  8.5833483940582800e-01  -8.6469097166427022e-01  1.0456955956638343e+00  -9.9211470131447754e-01  -9.9211470131447754e-01  -6.9922148250102489e-01  -6.9922148250102489e-01  -8.3267790857646884e-01  -7.9936596669252591e-01  1.0196210826422447e+00  -9.9211470131447754e-01  -9.9211470131447754e-01  -6.9922148250102512e-01  -9.9211470131447754e-01  -9.9211470131447754e-01  -9.9211470131447754e-01  7.1499207987206992e-01  7.1499207987206992e-01  -6.9922148250102512e-01  -9.9211470131447754e-01  7.1499207987207014e-01  7.1499207987207014e-01  -9.3436112044585462e-01  4.5142147859585008e-01  1.0714184918257046e+00  4.6868240896794139e-01  -6.5118222602820863e-01  -5.0860524777284322e-01  -6.3709875026329577e-02  -1.0690209422116863e-01  3.9879377444067310e-01  7.7473353618718308e-02  -4.1012058993522249e-01  -8.9610320683177935e-01  -9.5870280301389477e-01  -9.5352993346660730e-01  -8.7084449052443258e-01  3.0148558946639481e-01  -2.3678648802240160e-01  4.8785597119112400e-01  -8.9620500074405618e-01  -9.7532911953646628e-01  -6.8823300874007665e-01  9.1650824928821029e-01  -3.5473851794637568e-04  -4.9122360126963605e-01  -9.0217122575438924e-01  -8.3973438945061030e-01  -4.2575230892325228e-01  -8.3858071852910909e-01  -9.0355109551870094e-01  -3.0376090645175430e-01  5.8647164243926693e-02  9.5470620361415215e-01  8.9316499976891950e-01  8.9429274702894557e-01  7.7488180131712520e-02  -9.2039582584081558e-01  1.0391831319346323e+00  8.3931853849480231e-01  -4.2176189482684989e-01  9.7261893814015465e-01  1.1214911791074953e+00  1.5415896521812736e-01  4.2347931177557457e-01  -5.3270015853827068e-01  -9.3043369041192536e-01  -9.9211470131447754e-01  -7.5806934990753227e-01  1.0896427034059322e+00  3.9056873105061279e-01  -5.3811569501510770e-01  -9.9211470131447754e-01  -9.3214688207940410e-01  -4.0425238580746409e-01  -6.6710046589694183e-01  -6.0962623768450264e-01  -1.8809858755714401e-01  7.7791169767079615e-01  8.6248355831108425e-01  7.7458017872517348e-01  -6.8089471545524216e-01  3.9352594609344144e-01  -3.7479813367956755e-01  -8.8947493342399583e-02  -5.4859128194283968e-01  -9.1599423382576406e-01  -8.7998536016716411e-01  9.3176483119680931e-01  9.8855664662008380e-01  -8.9360038618665816e-01  -8.3671172416766193e-01  9.8210892064603428e-01  -2.6706305990789031e-01  -9.1403881817079746e-01  -7.4063962125655836e-01  7.7124552496890197e-01  6.1574520786345466e-01  -9.5990078651906352e-01  4.7548909420816515e-01  -6.4074193396856449e-01  -9.2537964854866406e-01  -8.3851307321385593e-01  -9.9211470131447754e-01  -9.3149670005064211e-01  4.8751019112537952e-01  9.0503396424916704e-01  -9.1599423382576406e-01  7.5395270710518703e-01  -8.2971822823318508e-01  -2.8942288120736476e-01  -1.7046163115172266e-01  -9.4903472047083992e-01  -9.9211470131447754e-01  -4.5427411966973238e-02  -4.3745316432974490e-01  1.3804150200944271e-01  2.5428834531917760e-01  -7.5127439915076988e-01  -9.9211470131447754e-01  6.3857713093275847e-01  -2.2718924557766115e-01  1.0780928195681352e+00  4.8795779248373855e-01  -9.9211470131447754e-01  -9.1599423382576428e-01  -9.1599423382576428e-01  -9.9211470131447754e-01  -9.2980645444734722e-01  -8.4643593534444594e-01  -8.1317784834850748e-01  -9.6998760999957157e-01  -9.0407638808449997e-01  1.0242225219744534e+00  -9.9211470131447754e-01  -9.9211470131447754e-01  6.9251402906422210e-01  -8.2894561944143397e-01  -7.9720774664855398e-01  -7.3134354305722515e-01  -4.9154273176176838e-01  5.3197661964738996e-01  1.0833782340234892e-01  1.0312191727429620e+00  1.0285617595760206e+00  3.9056873105061218e-01  -3.7479813367956738e-01  9.3176483119680931e-01  9.3176483119680920e-01  3.9056873105061218e-01  9.3176483119680920e-01  -9.9211470131447754e-01  -3.7479813367956738e-01  -9.9211470131447754e-01  -9.9211470131447754e-01  -9.9211470131447754e-01  -9.9211470131447754e-01  -9.9211470131447754e-01  -9.9211470131447754e-01  3.9056873105061279e-01  -3.7479813367956755e-01  1.0698590662420748e+00  -9.2121674727849989e-01  -6.9610706828949054e-01  7.5901101788885728e-01  -4.7249173735424826e-01  -7.1328784507674059e-01  -6.4825959099736130e-01  1.7235842482155669e-01  -9.7197004967637257e-01  -9.6445029634460122e-01  1.0605829022076454e+00  9.5008206093972269e-01  2.6091955268980116e-01  9.3452871741614219e-01  1.0386340832991927e+00  -8.7761331288972633e-01  -3.9157066117206329e-01  3.2969807550831903e-01  -5.7194649671482778e-01  3.5164743142934518e-01  2.6887908194452733e-03  1.9328667520912490e-01  -3.7394801319153903e-01  -8.9476065521753759e-02  -2.5202891908028241e-01  9.4031852298466223e-01  1.0698439774532473e+00  -6.5613024991461077e-01  -8.7401964012692168e-01  3.4832838828381681e-02  -7.5520239990162177e-02  1.3428810586960999e-01  -4.7479802845412211e-01  7.0385691272249418e-01  9.9885957331595920e-01  6.8900340688553285e-01  -9.5403630711996446e-01  -4.1257650558317222e-01  -3.7293717990495517e-01  1.0443381247732673e+00  9.4311908184797666e-01  9.5309326107358594e-01  -9.4974800781186575e-01  3.5237450387806629e-01  -1.3594333987960061e-01  5.0051201178866273e-02  1.0642727075768521e+00  -2.8054589439277194e-01  9.1067891183076577e-01  1.1741604697517526e-01  4.0964443575661591e-01  2.5047469247773468e-01  -8.5990629530086315e-01  -3.6500523760933029e-01  1.6306697040520018e-01  -9.3578854758087981e-01  -9.7654292766343953e-01  7.5180861937181501e-02  5.2434191462248203e-01  -1.3630842714294933e-01  5.6438698627263584e-01  -9.5315298857715192e-01  7.3615639476629990e-01  -8.0162317986590914e-01  -9.4740591028812016e-01  -9.5632758530765438e-01  -6.9169495676023451e-01  -6.1690328323134480e-01  -6.3241776487602541e-01  -6.7759627582898707e-01  6.9572378007297742e-01  1.0267556158095723e+00  -9.7529580076071898e-01  -9.3857204938245908e-01  -9.3140894344577885e-01  9.2045067533579772e-01  9.3612918167611381e-01  -3.8757527295877459e-01  -8.1674432873909053e-01  -8.0318913099988931e-01  -8.2275099192819867e-01  -9.5519640649408766e-01  1.0568031947452958e+00  -4.3303045279502322e-01  -6.2515778195182736e-01  6.0359063524896650e-01  1.4771015683331409e-01  -3.8446102313153041e-01  -8.2842049643787885e-01  -6.3062289096723112e-01  -9.5838707249208610e-01  -9.4933700455382442e-01  -7.9761981381901992e-01  -6.4537347552953417e-01  -7.9411033397492192e-01  -9.3351022505131032e-01  -9.8258733829568923e-01  -9.8185028281856079e-01  -9.4318118054832012e-01  -8.5545283517102333e-01  7.7861880931914795e-01  -9.8868324219199766e-01  -8.9311954489413781e-01  -7.4620847691615177e-01  -7.9139811540421301e-01  -7.2866125546699345e-01  -7.8747469888405741e-01  8.5001633242263175e-01  -5.7149800293598230e-01  -9.6611215507680370e-01  -1.2564417309216516e-01  -9.5685652611632122e-01  -9.5995498486663622e-01  2.5763219045218033e-01  -5.5816364342613978e-01  -5.0207547199117097e-01  -1.5350495530592331e-01  -2.2548077197144495e-01  1.0262306290806391e+00  -6.7075203487607171e-01  6.5370681178848422e-01  -7.0763536405348082e-01  -8.1454254163815121e-01  2.3881266218942346e-01  -1.0382359069803236e-01  -6.0911937113328873e-02  -9.6947010128670941e-01  7.7106393946767349e-01  9.7720171782980481e-01  -9.0667205663182560e-01  7.3126146000654313e-01  -9.7892037271062027e-01  -8.6773665458633686e-01  -5.9990936635897640e-01  9.2805323366992509e-01  8.1434399178158490e-01  1.0486701962705456e+00  -5.8531151925466685e-01  3.4835416906726097e-01  3.7372559518520115e-01  9.8806818521805073e-01  -8.5575804008315792e-01  -9.6592528763400620e-01  9.1661336162646301e-01  1.0660186759938479e+00  -5.0040039570639172e-01  -9.6430699468323577e-01  -2.0233140125789706e-01  6.3830495255395614e-01  -9.7104524860167529e-01  6.8817061515345646e-01  1.1061744658103787e+00  2.3422112096809142e-01  1.9089834670367017e-01  -3.0568742946585442e-01  -9.1168913751841629e-01  -9.4607802612827907e-01  -9.2988374681954100e-01  -9.6583943401106775e-01  -9.6758141485607874e-01  1.0250622475369531e+00  9.8477809892896095e-01  1.0238327259240270e+00  -9.6085820826445900e-01  -9.0898657576589648e-01  1.0911072119773426e+00  1.1031851017725303e+00  -5.8547267834117533e-01  -3.9058087027104510e-01  9.2428920597183173e-01  3.6245028821723907e-01  -9.6803694117436079e-01  1.1932856207828252e-01  8.3399542278276229e-01  -2.7670440628528048e-01  -9.5171446391920900e-01  -3.0632554310647281e-01  9.1537142306674357e-01  -7.2162068298814630e-01  -7.7559586625318444e-01  -7.3067102165274722e-01  -5.1351278891123331e-01  -1.6781299292807736e-02  8.9126048857019846e-01  4.2837087256591316e-01  2.7469439149447039e-01  6.3734418868248710e-01  -1.0505173982842791e-01  -8.8674384949422325e-01  -6.5668867645942719e-01  -6.0352641252241834e-01  -5.2062978133264293e-01  3.6543790615519617e-01  -8.9839086641135801e-01  -5.5803125371507367e-01  4.3121638185448408e-01  5.8157205534999823e-01  7.5966506303526016e-01  -9.7498520297720637e-01  -9.6932596316959396e-01  6.1628403239619267e-01  6.7209774222924046e-01  5.1425924587093452e-01  9.3596244169038456e-01  8.5125258180288232e-01  -4.5535673964884660e-01  -8.1262163577771995e-01  -9.9211470131447754e-01  -6.1398412609452080e-01  -6.3778881462419557e-01  -8.7824556074695914e-01  6.6742786369539919e-01  -8.9848202932749166e-01  -2.2756068260681406e-01  -7.0331142576070571e-01  -1.8720502333060587e-01  -9.5357214248221056e-01  5.2646503394463792e-02  -7.8041013781042043e-02  6.2893793322831093e-01  -4.7149960923051981e-01  -6.7509290261799892e-01  1.0022288875707037e+00  1.0125333269212560e+00  -7.6973520466995193e-01  -5.9042332448800650e-01  -3.6560368529751319e-01  1.0493185725857113e+00  1.0139598062301836e+00  7.8697815351385569e-01  9.8014906162792048e-01  -9.9211470131447754e-01  -4.8383208454017562e-01  3.2321787732000701e-01  1.4091003728496315e-01  5.5770843782216173e-01  -8.8897440543123185e-01  -5.3492392692530984e-02  -9.5453837926238694e-01  -9.7612297534318682e-01  -1.6915565576342934e-01  -8.2526423570644092e-01  -9.6228568647009172e-01  -3.7523488732300880e-01  -8.2616664935259210e-01  -7.3611873876863509e-01  -7.0367306117589790e-01  9.7866828237570014e-01  -4.9707094959580056e-01  -8.9663430497756003e-01  -9.9211470131447754e-01  5.0766725054541961e-01  -9.4501776544582583e-01  1.0730919710437010e+00  -7.9883845311837076e-01  2.9167262524829743e-03  4.0798235547896905e-01  8.3935491098806780e-01  -9.0721106508439953e-01  9.1669669053382780e-02  -9.7124753310262624e-01  -4.5075643870919513e-01  -8.7197062554932558e-01  -7.2477136912985052e-01  5.8957445071843073e-01  -8.1475906650473118e-01  -9.9211470131447754e-01  -9.6421985720722414e-01  -6.2328192127602633e-01  -8.8932894926984574e-01  -7.6804337614380447e-01  -8.8622294323513606e-01  -8.7247728832990090e-01  -7.6007089515258430e-01  7.8080077103269108e-01  8.0014536382389578e-01  6.2851788372396533e-01  -9.6745486472283726e-01  -5.4768493433407983e-01  -1.9169530867162851e-01  2.2279859918716535e-01  -2.1709245084573911e-01  -6.6260983536633400e-01  5.6345553170512463e-01  -7.2513996751610066e-01  -9.0907746080092200e-01  -5.4727277945094743e-01  -9.1158325032923226e-01  -2.4590503465949753e-01  -4.0441943212000270e-01  -1.2725950745289155e-01  1.0714162055834917e+00  -1.6721950935906248e-02  5.6345553170512441e-01  9.7572421984264057e-01  8.1484435762425178e-01  7.0589228337059673e-01  -9.0533306170939409e-01  3.5598444754379815e-01  -2.6745516578078626e-01  3.3035648236635340e-01  -3.9449565856553348e-02  -9.9211470131447754e-01  -1.8720502333060587e-01  -3.1201180459914918e-01  8.3719701408534541e-01  -9.5751461037887919e-01  -8.8580350734368341e-01  -7.4802160359386982e-01  2.4107020108175956e-01  -1.3879766208546293e-01  -8.5439938646477753e-01  1.0655171303927831e+00  -7.8081970884185969e-01  8.0151853733544220e-01  -9.9211470131447754e-01  -4.9679734078866461e-01  -4.8362668551538529e-01  -2.8298003193980209e-01  -9.6146592735136416e-01  -9.1530750730840849e-01  2.0113463352010399e-01  2.7598123378732248e-01  1.2646923501043505e-01  1.6317526466291955e-02  4.5284358061046098e-01  4.1290660754621100e-01  1.0773868679263656e+00  -2.7416799115947477e-01  -9.6238238689619804e-01  7.8159254414414669e-01  -2.1393728153642369e-01  -9.6449254010236596e-01  -6.6315654439474836e-01  -9.0818900427134253e-01  2.0297562070165065e-01  4.5251998275331795e-01  9.2218291521879256e-02  3.7517839971339578e-01  -6.6317782722264074e-01  2.5503583982042927e-01  3.9766283343167536e-01  5.1400693255571561e-01  -9.7289998171770797e-01  8.3446744833044351e-01  -8.5961554045486532e-01  -8.0163702053926733e-01  1.5316280105337171e-01  5.5114241111138440e-01  8.8943530913185753e-01  6.1269807639855360e-03  -9.2508012852739729e-01  6.0621324672148824e-01  -4.8204063611121167e-01  -1.5445552025930082e-01  -2.3674642999467996e-01  -6.0968774339203211e-02  -7.1677403412033891e-01  -8.8001654745085367e-01  1.0329622072247193e+00  1.0907982133205310e+00  -8.1679465806180562e-01  1.0229407019473373e+00  7.4963893886897093e-01  -9.3212857283491413e-01  -9.5252543440315174e-01  -9.6156566424283996e-01  5.8061863700792227e-01  -9.4857890691209790e-01  1.0144880170432595e+00  -9.9211470131447754e-01  -4.5094341766253837e-01  7.6909599201829659e-02  -9.1940375240549088e-01  -4.3570892464250116e-01  -8.1345335210945013e-01  1.0918966466445263e+00  -7.6659166851289839e-01  8.0510198506486175e-01  5.2894928719629530e-01  -2.5979754394542409e-01  -9.1945854921511261e-01  -5.7227167667584589e-01  6.4570604894629258e-01  1.0118590929485070e+00  6.0579507121726750e-01  1.0635546347927796e+00  -3.1152077122516697e-01  -1.8720502333060585e-01  -9.3287833711981605e-01  2.8739104371270874e-01  -9.0064053683797307e-01  -5.2601420992934167e-01  1.0124223911607944e+00  -8.1348316409718846e-01  -1.1902155356378302e-01  -7.5813584645252607e-01  1.0734878647052770e+00  2.2988341048790362e-01  -8.8017236861344428e-01  -9.6392213171124097e-01  -9.7702012863002030e-01  -9.5174967634094199e-01  9.0728778986703917e-01  8.3935491098806780e-01  3.7763652537508280e-01  -9.8770585149134879e-03  -7.9092205456666520e-01  1.0367841061434744e+00  -9.7534443911744551e-01  1.0138781138750539e+00  9.7563387574286997e-01  -9.9211470131447754e-01  -3.5340716942619760e-01  5.2394531975095293e-01  3.5694439296482805e-02  -4.4081135967658008e-01  9.3685059485138902e-02  8.4845704809461242e-01  -3.4846840843985938e-01  9.7798464853296796e-01  1.0557779700389727e+00  -9.9211470131447754e-01  -9.9211470131447754e-01  6.1332400657061215e-01  -9.9211470131447754e-01  -4.7883119415730291e-01  -9.8207576958022624e-01  -5.4768493433407983e-01  -9.9211470131447754e-01  -6.8669248499722546e-01  -8.4973908670357468e-01  -8.6084707014057094e-01  -5.4203680406987587e-01  -8.5225572209060396e-01  -9.2913587823095833e-01  8.5038586397190377e-02  -1.8720502333060585e-01  -9.8280184857987629e-01  -9.7465546469254871e-01  -9.3333816361357969e-01  8.2397981138646281e-01  -9.7241759959813867e-01  -8.2645708356601599e-01  -6.6533297249264367e-01  6.8683050314246874e-01  1.0819750664920702e+00  1.7538938104432372e-01  3.6852942695703816e-01  2.9978732679100423e-01  -8.6727400034033425e-02  6.2161598299323739e-01  -9.4891559006151616e-01  8.8383778782328237e-01  -2.8816588093793372e-01  1.0496436283095181e+00  1.0242129359298946e+00  -8.8937988996614770e-01  -5.8158369676695565e-01  -9.6283539756652159e-01  9.9220589639259416e-01  8.1851063311985461e-01  -9.9211470131447754e-01  -8.2358431361702278e-01  8.3935491098806791e-01  -5.4768493433407939e-01  -9.9211470131447754e-01  -9.7289998171770797e-01  9.8867057908875289e-01  -9.9211470131447754e-01  2.0297562070165065e-01  5.6345553170512463e-01  -9.9211470131447754e-01  -9.9211470131447754e-01  9.8867057908875289e-01  9.8867057908875289e-01  8.3935491098806791e-01  -9.9211470131447754e-01  -9.9211470131447754e-01  -9.9211470131447754e-01  -9.9211470131447754e-01  -9.9211470131447754e-01  -9.9211470131447754e-01  -9.9211470131447754e-01  -8.2358431361702278e-01  -9.9211470131447754e-01  -9.9211470131447754e-01  -8.2358431361702278e-01  -9.9211470131447754e-01  -9.9211470131447754e-01  -9.9211470131447754e-01  -9.9211470131447754e-01  2.0297562070165112e-01  9.8867057908875289e-01  -8.2358431361702278e-01  -9.7289998171770786e-01  -9.7289998171770786e-01  -9.9211470131447754e-01  -9.9211470131447754e-01  5.6345553170512441e-01  2.0297562070165112e-01  -5.4768493433407939e-01  -1.2011870783242068e-01  1.0121991278833093e+00  1.7101213295667969e-01  3.8286630023784046e-01  -5.0423120042525305e-01  1.0260395131992346e+00  -8.7461184125493807e-01  -8.6603476523526646e-01  -8.8230939320298651e-01  6.9738560773899183e-01  -9.8329643392124377e-01  -9.8220944922904285e-01  -6.7610649135278522e-01  -9.3319369313792200e-01  -8.9276516543417306e-01  -9.6554741009129530e-01  -9.2856300991742702e-01  -9.6749070798581993e-01  -9.5968900864542084e-01  8.9173593376164317e-01  1.1197562338764702e+00  9.9276722510513571e-01  -8.5924755838177702e-01  9.9493379459720688e-01  -8.7446811536769509e-01  -1.8630808362545798e-01  -8.5521591506249273e-01  5.9949110287838669e-01  8.5923793837553897e-01  -6.5242203872958260e-01  3.9293891376205076e-01  -6.3901095448906098e-01  -3.7876006411017860e-01  -4.8079624230453955e-01  -6.6284657564261462e-01  7.7242350145884031e-01  -7.6073947455307034e-01  8.1279977568177605e-02  3.7482030727315896e-01  9.9020673054676378e-02  -2.5669707768849420e-01  3.3544433245769711e-01  -7.7434712677291595e-01  1.0904079314304962e+00  7.7171505118038142e-01  9.1234521572338667e-01  -4.6852912885433678e-01  -3.8561003116014586e-01  1.0116237974194671e+00  1.0359366010060986e+00  1.0914432954629987e+00  -1.7353964843229572e-02  -9.6648230392609613e-01  9.1663927646555998e-01  -5.6404410281695738e-01  -7.5080934305869373e-01  -6.4175798165352493e-01  1.0103396951309151e+00  4.3957605714268919e-02  1.0960319868263615e+00  -3.1043761118778046e-01  -3.9012688017017833e-01  -7.5675647984292171e-01  7.8646348215747097e-01  -7.4239319671689041e-01  -6.2790272770371103e-01  -7.0503181543152149e-01  5.2870906354536062e-01  -3.0563494854060930e-01  4.7495520160925769e-01  8.9561840856667019e-01  1.0016960286091283e+00  -3.7253570408149039e-01  -4.6906886259633257e-01  -5.2374246607145358e-01  9.0112797011463730e-01  7.7536868652271485e-01  -7.4484052910328169e-01  1.0075650644212248e+00  1.1165155092900088e+00  4.4254678393227609e-01  2.8445632226534318e-01  -4.4008886105254830e-01  -8.9441728553299016e-01  6.9662041307050226e-01  1.0695628187976589e+00  -9.2418763604663545e-01  -7.7631268393062458e-01  6.0444986088139785e-01  9.6075884475306472e-01  -1.7157692835164304e-01  -9.0162221912489271e-01  -8.6158748985886668e-01  -8.2711330924288429e-01  -9.5380265422332478e-01  4.3932484436236441e-01  4.5681835942962667e-01  -8.2563589664806314e-02  9.4316505953373330e-03  -7.5479728581880823e-01  -7.2590763842477479e-01  7.3399425186905332e-01  3.0197205409438055e-01  -8.6609443515416851e-01  -7.4405704018938112e-01  9.5187088299143008e-01  3.9548103559290582e-01  -6.5