<?xml version="1.0"?>
<VTKFile type="UnstructuredGrid"  version="0.1"  >
<UnstructuredGrid>
<Piece  NumberOfPoints="15681" NumberOfCells="30848">
<Points>
<DataArray  type="Float64"  NumberOfComponents="3"  format="ascii">0 1 0  0 0 0  1 0 0  1 1 0  0.5 0 0  1 0.5 0  0.5 1 0  0 0.5 0  0.5 0.5 0  0 0.25 0  0.25 0 0  0.25 1 0  0 0.75 0  1 0.25 0  0.75 0 0  1 0.75 0  0.75 1 0  0.7083333333333333 0.2916666666666667 0  0.2916666666666666 0.7083333333333334 0  0.375 0.25 0  0.75 0.625 0  0.2569444444444444 0.4652777777777778 0  0.5366379310344828 0.7535919540229885 0  0.1875 0.1875 0  0.8125 0.8125 0  0.869047619047619 0.375 0  0.1450441919191919 0.6052714646464646 0  0.375 0.8690476190476191 0  0.5526960784313725 0.1825980392156862 0  0.8385416666666666 0.1614583333333334 0  0.1614583333333333 0.8385416666666667 0  0.6736111111111112 0.4652777777777778 0  0.1367521367521368 0.3477564102564102 0  0.6570970491253563 0.8648656830417855 0  0.5102479397556124 0.3386260301221938 0  0.3654513888888889 0.5737847222222222 0  0.6929750044954185 0.1362784921584263 0  0.388576102743835 0.411911725237599 0  0.6091269841269842 0.5942460317460317 0  0.875 0.6875 0  0.427278890279516 0.119889445139758 0  0.8544456845238095 0.5213913690476191 0  0.125 0 0  0 0.125 0  1 0.875 0  0.875 1 0  0.1280008648150532 0.4769292340226777 0  0.2695382451711197 0.3321750950221553 0  0.7031567235715964 0.7447810921428012 0  0.625 0 0  0.375 0 0  0.125 1 0  0.875 0 0  0 0.375 0  0 0.625 0  1 0.375 0  0.375 1 0  1 0.125 0  0 0.875 0  0.625 1 0  1 0.625 0  0.2979288363930608 0.1201429454643536 0  0.410919540229885 0.7484605911330049 0  0.5325041980395562 0.878905151526474 0  0.4831670727569156 0.6331060043826487 0  0.1735997378973042 0.7204747378973043 0  0.2534919507575758 0.5772372159090909 0  0.2633928571428572 0.8876488095238095 0  0.8199404761904761 0.2730654761904762 0  0.75830270586982 0.3919383189517417 0  0.5750282248382511 0.4237522353023667 0  0.6008360210023379 0.2794828358598495 0  0.08163442644334186 0.6821295860397322 0  0.08333333333333333 0.1875 0  0.2028380815996574 0.08844602719988583 0  0.2766521142611967 0.2325436572164097 0  0.90625 0.78125 0  0.890625 0.890625 0  0.7545696325008384 0.8973565441669461 0  0.5625 0.08086590340834317 0  0.09077380952380953 0.09077380952380952 0  0.4610923478694773 0.209034015149656 0  0.7542527598351648 0.5248380520595106 0  0.6459235536037465 0.3619913988405765 0  0.7560381768882634 0.20506142233852 0  0.07073252688172042 0.8125 0  0.0924753097241701 0.9078102849914793 0  0.9292674731182795 0.1875 0  0.9075246902758297 0.09218971500852073 0  0.8125 0.07073252688172045 0  0.2400955776842301 0.7869705776842302 0  0.9121050213379069 0.2781978201831695 0  0.7916878157143976 0.7239689078571988 0  0.9345238095238094 0.4375 0  0.4375 0.9345238095238095 0  0.3725616989755203 0.6651895248862173 0  0.06536271996350887 0.5625 0  0.9348362560379583 0.5625 0  0.456646798987055 0.8277247094351965 0  0.1875 0.9355758238725954 0  0.6169761231634859 0.6939779188977889 0  0.6226854751147515 0.7827911461419014 0  0.3305695598137626 0.7901697871282585 0  0.5865305325818898 0.5101085479043448 0  0.6622701297028378 0.2177663989757395 0  0.1354166666666667 0.2591702279202279 0  0 0.3125 0  0.2094429575680048 0.3936361846162499 0  0.836666296419157 0.607917407161686 0  0.6875 1 0  0.214261555450504 0.6492551722020035 0  0 0.4375 0  0.07731537126068377 0.40625 0  0.3427725432967068 0.4879566233699599 0  0.3550792513951871 0.3331953632609953 0  0.4462473953896857 0.2887834789342508 0  0.4747801464819794 0.417386052030127 0  0.8229836475148948 0.4443292349237342 0  0.7322605135514757 0.8199240278289671 0  0.6756431877205955 0.5468989748126787 0  0.1968419507215863 0.5194573482612496 0  0.3285590277777778 0.9345238095238095 0  0.8125 1 0  0.4198917601920009 0.5134893045331258 0  0.5232405503206691 0.2595791787880157 0  1 0.9375 0  0.1987510870015086 0.3025185951894431 0  0.5625 1 0  0.6005390654136388 0.9228110509230952 0  0.6411254848194414 0.07704872765442942 0  0.3357233162523242 0.1855113224530532 0  0.6730653396610877 0.6393887462324165 0  0.310966987234063 0.6240019765311626 0  0.7368737836204349 0.07457755202327881 0  0.6192316414418171 0.1485238406378594 0  0.5432429670607106 0.678552703844006 0  0.4754371679695679 0.7103946803120881 0  0.07501324890749672 0.3043839897335739 0  0.5358146975860403 0.5688321463205916 0  0.3115271739500156 0.3982137365971444 0  0.3625191397122174 0.0767854603650549 0  0.5024029442563831 0.1264128223758444 0  0.4375 0 0  0.4699946908887376 0.06379961173775725 0  0.9375 0.71875 0  0.9272105898044465 0.635671179608893 0  0.9375 1 0  0.6690971819568612 0.9331530898202766 0  0.1073454944778885 0.7499206387638554 0  0.8699082999280406 0.2232403652524313 0  0.5773118091863964 0.3548027349159383 0  0.1354166666666667 0.1428571428571428 0  0.3125 0 0  0.8241684193077341 0.9257452995055244 0  0.4352314948354036 0.3586940847489378 0  0.4351301473778832 0.5819726043539077 0  0.8073232928518163 0.3419398170341962 0  0.7775949246947366 0.1298519409204575 0  0.6875 0 0  0.7413513991851041 0.457933324954483 0  0.939453125 0.841796875 0  0.5630355154606987 0.8171875156478349 0  0.9345238095238095 0.3461466592368577 0  0.9375 0 0  1 0.0625 0  0.0625 1 0  0 0.9375 0  0.06552178593177167 0.4969053669623468 0  0.1424866619031703 0.4130277709291224 0  0.1275287182444726 0.5422946908002588 0  0.2637686595586339 0.06413888464529549 0  0.2524263535491086 0.1697437503243817 0  0.7367218397988525 0.6888573970660841 0  0.0625 0 0  0 0.0625 0  0.8463594539285995 0.7578283617857982 0  0.3128751192101563 0.2851997374369947 0  0.4015281788351144 0.1806421385113692 0  0.1910251795116588 0.4553332197174453 0  0.287797471442006 0.5222621440543902 0  0.3962628745986055 0.8097380085535307 0  0.3505895299554843 0.7304878890838692 0  0.5019151500495276 0.9356042615328103 0  0.9374389419410134 0.4999931039076005 0  0.3125 1 0  0.1875 1 0  1 0.5625 0  0.4375 1 0  1 0.3125 0  1 0.4375 0  0.8125 0 0  1 0.1875 0  0.5625 0 0  0.1875 0 0  0 0.1875 0  0 0.5625 0  0 0.6875 0  0 0.8125 0  1 0.6875 0  1 0.8125 0  0.8021696218581627 0.6612893947866073 0  0.06154922295426143 0.6239401126946708 0  0.9359375 0.9359375 0  0.4666158024849896 0.7691515918155014 0  0.2318201265217025 0.7064974250277525 0  0.1565954253579966 0.6635489312486841 0  0.1598132503680848 0.7787147500325552 0  0.3146529991605639 0.8510876378205265 0  0.1461873209418733 0.05982804528877814 0  0.06109554988524315 0.2446551776247686 0  0.8054950308560754 0.5564226538848541 0  0.470541749491976 0.8853316336952531 0  0.6948472567465137 0.4042308563372457 0  0.8802828472348889 0.4658893256343853 0  0.6788075634946739 0.7974194205806069 0  0.2155048659603867 0.2428201584940968 0  0.8131223143423806 0.2132171049028394 0  0.4330798005432235 0.6671274900735726 0  0.6015279126162613 0.2187368078743274 0  0.8061636571464289 0.8703766630361714 0  0.7008230445061776 0.3478568388444072 0  0.8638466246958771 0.3147095987735538 0  0.204801534004265 0.8789209409594009 0  0.2449006736431132 0.9424182882803838 0  0.7611268409371427 0.2643056884799992 0  0.7552800864046191 0.7678006649959446 0  0.5983639638906616 0.864113435029236 0  0.1956559506814437 0.577281203577426 0  0.3527670268164207 0.1320469097565204 0  0.7530364577483248 0.3262386077083089 0  0.4535919187979363 0.4690107087451527 0  0.8824869791666666 0.8336588541666666 0  0.8814453125 0.9451171875 0  0.5582987942628019 0.622421666543858 0  0.6817532446064828 0.6939001801354731 0  0.3830295138888889 0.9450968952922078 0  0.4140603937012541 0.05211333372716105 0  0.5535864501303013 0.3060591985391672 0  0.6560130086346878 0.2729726562211558 0  0.890203140221684 0.5948314305427268 0  0.7043857725999024 0.593980890020804 0  0.5105843922695152 0.8016828014338627 0  0.05365910753708378 0.7315110031682004 0  0.616904573672261 0.4621186633436136 0  0.5338511646455415 0.387875898899613 0  0.5231769258947843 0.4477682463140762 0  0.650302973237622 0.7370722302085519 0  0.3927483139621257 0.4662414504529014 0  0.8034595960585199 0.4972538342758211 0  0.7738337841682438 0.9496376207663251 0  0.7193737507158268 0.954685447650112 0  0.482525916480686 0.5528257169991676 0  0.2533501157346781 0.2809495420003238 0  0.3118487924482243 0.5702930126570319 0  0.6257598847669529 0.4104163315430518 0  0.1354166666666667 0.1955605158730158 0  0.04166666666666666 0.15625 0  0.3956448985530264 0.6174149462065157 0  0.8102897701818546 0.3938784238208349 0  0.2641154190013625 0.8344469561943118 0  0.642852220770013 0.5068794586563659 0  0.05271458179508221 0.355846947336007 0  0.7021551360070266 0.8921457280225779 0  0.5692125776683765 0.1328512638850284 0  0.5206162811937602 0.04865158770992991 0  0.6001838442201555 0.04540556991297563 0  0.2597716608242787 0.4118346398477178 0  0.4040584599473195 0.3179589136784675 0  0.1480337679295207 0.8941560631483065 0  0.1344356707112281 0.9466251177415842 0  0.7114696411829317 0.4983917389078826 0  0.7585704698442475 0.5751926345944629 0  0.2189131956390871 0.04022068508159698 0  0.2476935455192043 0.1123642267635843 0  0.185995005654517 0.1365524537205238 0  0.6223414373308711 0.643380839165121 0  0.5732602596637543 0.7190051747306219 0  0.268358222364537 0.6586246524467934 0  0.3265879848129173 0.2369791782191225 0  0.1267095595787346 0.7034787238999181 0  0.1115202922226038 0.6421997933884982 0  0.3128688392940203 0.07260997451790079 0  0.550724900485678 0.9253360991633187 0  0.7142608810459105 0.2384904702214873 0  0.7045869185243887 0.1871826897887429 0  0.890625 0.734375 0  0.953125 0.765625 0  0.2111812642821677 0.8286209446459138 0  0.9590293078204457 0.09375 0  0.953431269039847 0.1435719386408004 0  0.04097069217955424 0.90625 0  0.04656873096015299 0.8564280613591996 0  0.1078743037981226 0.8541621766048062 0  0.8921256962018773 0.1458378233951939 0  0.8521576979194619 0.1084496634207678 0  0.8655663982740958 0.05464346096571447 0  0.04005659640905543 0.09375 0  0.1001448316533417 0.0424677624422826
[...]
<PointData  Scalars="f_139523"> 
<DataArray  type="Float64"  Name="f_139523"  format="ascii">-4.8175367410171221e-01  -4.8175367410171221e-01  -4.8175367410171221e-01  -4.8175367410171221e-01  -4.8175367410171221e-01  1.5182463258982879e+00  1.5182463258982879e+00  -4.8175367410171221e-01  8.9343140280466760e-01  -4.8175367410171221e-01  -4.8175367410171221e-01  5.1824632589828767e-01  -4.8175367410171221e-01  5.1824632589828767e-01  -4.8175367410171221e-01  5.1824632589828801e-01  5.1824632589828801e-01  3.5801357469240441e-01  3.5827297181177281e-01  -1.7306867958228506e-01  1.6389119217048822e+00  -5.7052707847159392e-02  1.4944892049258987e+00  -4.5595824953489278e-01  1.0563794990666193e+00  9.8658799161692656e-01  -3.0888070121735678e-01  9.8760726976696456e-01  -2.3285211255821364e-01  -1.8045046116825506e-01  -1.8244124104711351e-01  1.1764724698493523e+00  -4.3421147200372734e-01  1.4305249262388688e+00  3.3647807871977470e-01  5.3670907842194115e-01  -3.0477275853744834e-01  2.8691642904282677e-01  1.4741744954565084e+00  1.3328119677562555e+00  -4.1799944926569643e-01  1.4801908991415396e+00  -4.8175367410171221e-01  -4.8175367410171221e-01  -1.8886045528825957e-01  -1.8886045528825957e-01  -3.8983269843673085e-01  -1.8744488572856813e-01  1.6108932309433326e+00  -4.8175367410171221e-01  -4.8175367410171221e-01  -1.8886045528825979e-01  -4.8175367410171221e-01  -4.8175367410171221e-01  -4.8175367410171221e-01  1.2253531070848354e+00  1.2253531070848354e+00  -1.8886045528825979e-01  -4.8175367410171221e-01  1.2253531070848354e+00  1.2253531070848354e+00  -4.5887186081641806e-01  1.0230375448777347e+00  1.5161103729530929e+00  1.1657830341555926e+00  -1.8684185688652544e-01  6.1377763222932424e-02  4.0135888792942459e-01  3.6573902204477254e-01  9.6419515588406479e-01  7.9894586032430970e-01  2.0539114773937417e-01  -4.0367524998472981e-01  -4.8798207230849444e-01  -4.7904831978866591e-01  -3.1267260597242730e-01  7.7696173724665385e-01  2.1888880778631767e-01  9.5549081580188389e-01  -4.1163331736657965e-01  -5.0291973766949472e-01  -2.0268748997435687e-01  1.4615510118498165e+00  6.3443535587023570e-01  1.9105317944308180e-02  -4.2369130367832220e-01  -3.6911027956455433e-01  5.2675609430125010e-02  -3.6958787416011213e-01  -4.2342279446879044e-01  2.1997110361114675e-01  5.4355566340263206e-01  1.4733461976782358e+00  1.3858128052534058e+00  1.3848829031882799e+00  7.1876875487708436e-01  -4.2957828776152424e-01  1.5302845641775753e+00  1.2778550047102104e+00  6.1571295955967005e-02  1.6245529004783144e+00  1.6182473359154956e+00  6.8023573569205875e-01  1.1547362851087049e+00  6.0588720674099872e-03  -4.7796452005142814e-01  -4.8175367410171221e-01  -2.4384742350505900e-01  1.5502270096464794e+00  9.0092975826337818e-01  -2.6885518835565766e-02  -4.8175367410171221e-01  -4.4246712123133536e-01  3.1026972576153200e-01  -1.6173161432827519e-02  3.1038242206125131e-02  5.2857014793058477e-01  1.2282788260053588e+00  1.3335193619244043e+00  1.4689132123347353e+00  -2.0722003475047920e-01  8.8225135398026855e-01  1.3556289353319778e-01  6.3548876291160161e-01  1.7346947114104921e-02  -4.0563320661299873e-01  -3.5322256005825542e-01  1.4421258584095746e+00  1.4871580791273151e+00  -4.1963340613132316e-01  -3.6307166835747789e-01  1.6252047257888196e+00  3.7812527418033631e-01  -4.2836496820110342e-01  -3.0200417406572161e-01  1.4628410759324662e+00  1.2408501942766872e+00  -4.6036054146059069e-01  1.1988549503754506e+00  3.5725114476070984e-02  -4.5267097594974093e-01  -3.7607111137747384e-01  -4.8175367410171221e-01  -4.4567942873968397e-01  9.8525730993624061e-01  1.3791726868922192e+00  -4.0563320661299873e-01  1.2384939671068327e+00  -3.6638644778603235e-01  1.6900333495068079e-01  4.9704185142177298e-01  -5.2305818075367638e-01  -4.8175367410171221e-01  4.2168890924909869e-01  2.3732358894113742e-01  8.6530173565957236e-01  7.3375538531736584e-01  -2.9369575017100702e-01  -4.8175367410171221e-01  1.2097120521612095e+00  2.4941257910592990e-01  1.5380565018523109e+00  9.7563302151137177e-01  -4.8175367410171221e-01  -4.0563320661299895e-01  -4.0563320661299895e-01  -4.8175367410171221e-01  -4.3072381671576210e-01  -4.0805814153132508e-01  -3.6360679740899626e-01  -4.8005069077580587e-01  -4.4722884198099577e-01  1.6444543081845779e+00  -4.8175367410171221e-01  -4.8175367410171221e-01  1.1434491357257117e+00  -1.9138705809284143e-01  -3.2778857269507511e-01  -2.6949765387495905e-01  1.2949883726519160e-01  1.0180531638320971e+00  7.0248784001177733e-01  1.5298461033434223e+00  1.5272942949319015e+00  9.0092975826337751e-01  1.3556289353319795e-01  1.4421258584095746e+00  1.4421258584095744e+00  9.0092975826337751e-01  1.4421258584095744e+00  -4.8175367410171221e-01  1.3556289353319795e-01  -4.8175367410171221e-01  -4.8175367410171221e-01  -4.8175367410171221e-01  -4.8175367410171221e-01  -4.8175367410171221e-01  -4.8175367410171221e-01  9.0092975826337818e-01  1.3556289353319778e-01  1.5614180804445694e+00  -4.3624279187675763e-01  -2.0123796580947018e-01  1.2829810138316435e+00  9.7010483064398759e-02  -2.6794415424390117e-01  -1.9066380240206510e-01  6.4085984603258561e-01  -4.9953292813276184e-01  -4.7335574558814847e-01  1.5360591976103373e+00  1.4025807090733302e+00  9.2846743369849016e-01  1.3816452161309896e+00  1.5645881760250628e+00  -3.4894846958073866e-01  8.5422132913594295e-02  1.0151813826479443e+00  -3.4331005930096276e-02  7.9541370117559174e-01  6.5045746468109777e-01  6.6570309651031512e-01  7.6921290630569530e-02  4.0140566400489708e-01  3.0391258384531061e-01  1.4858988311829584e+00  1.5342011169988203e+00  -1.7875757263934708e-01  -4.3556233452653970e-01  6.2921556570617010e-01  6.4353410893369922e-01  5.7026520659868074e-01  2.4345879434445818e-03  1.3969676532847111e+00  1.6702611849752289e+00  1.1828108364523997e+00  -4.5734125476335769e-01  2.7154564989238955e-01  2.3557927724451086e-01  1.5235896610434216e+00  1.5868777552089530e+00  1.4378990133037328e+00  -4.5399079625854538e-01  1.0544006996534891e+00  5.7807337575288764e-01  7.7347340439415802e-01  1.6494830586862448e+00  4.4135855133880042e-01  1.3978414453947159e+00  6.1435376018488264e-01  9.1062398157936286e-01  9.7559865811258628e-01  -2.9107745619455999e-01  3.1562054253902433e-01  8.3620120292691591e-01  -4.9150912087894000e-01  -4.9028419156636088e-01  7.7486068101661643e-01  1.0084680185744397e+00  3.1973875403173885e-01  1.2790503742780446e+00  -4.6281466618326600e-01  1.2223310246359755e+00  -3.5328895196052384e-01  -4.5229179471148923e-01  -4.4901288998880778e-01  -1.1097042139818271e-01  6.2995235062190430e-02  -1.9235611622569124e-01  -1.9491209380292210e-01  1.3333961455238099e+00  1.5803370100936784e+00  -4.7673831721283150e-01  -4.7567458270126856e-01  -4.9445415277825122e-01  1.5644676795272290e+00  1.5510793750487248e+00  2.1614100411899331e-01  -2.3456628053625830e-01  -3.3362759770312100e-01  -3.7343152231357618e-01  -4.5333923551060568e-01  1.5469075508083354e+00  1.3410940164132396e-01  -1.2645995663890289e-01  1.0716378093798411e+00  6.4609624186910408e-01  7.1336223633036419e-02  -3.3649907013078062e-01  -1.4960620265887048e-01  -4.6321436111738984e-01  -4.6551223541566711e-01  -3.5620246789695148e-01  -2.0568574049926655e-01  -3.5530203148975709e-01  -4.5341843757921318e-01  -4.9127204383085160e-01  -4.9325889664896844e-01  -4.4608378484747729e-01  -3.5990886297423180e-01  1.2296668982915191e+00  -4.8406695225292301e-01  -3.9284099158471431e-01  -2.8443688808810358e-01  -3.4520966460279084e-01  -1.9325798539662867e-01  -3.3286265613839933e-01  1.5272507365955599e+00  1.1357204271906839e-01  -5.0741047942832285e-01  3.6614746855612162e-01  -4.5838256928901544e-01  -4.6158917171912811e-01  7.6383121981789592e-01  -6.7334510800206734e-02  4.5426401391958438e-03  4.1375384602949428e-01  4.4013983491261444e-01  1.4556177341134837e+00  -2.2335977961178433e-01  1.3565520626613841e+00  -2.6030567086444495e-01  -3.5989638939755575e-01  8.7271756600842754e-01  5.6769219396582915e-01  3.9448713178007894e-01  -4.7347858517028574e-01  1.2259091403697764e+00  1.4302127037123564e+00  -4.2079870216047049e-01  1.2394260436370683e+00  -4.7698877637041526e-01  -3.7999391602077276e-01  -4.3935162412779401e-02  1.4077112209803107e+00  1.3162391738693058e+00  1.5807437740493711e+00  -1.3477037134587330e-01  8.5770959002186042e-01  8.0362630590173356e-01  1.4857211585472978e+00  -3.9449110757825634e-01  -4.6553116846389742e-01  1.4227846370105919e+00  1.5286528458135487e+00  1.7855110090934748e-01  -4.6627295297348037e-01  4.6784680566248177e-01  1.0882962993612415e+00  -4.6708893099428517e-01  1.1853133338971653e+00  1.5291770556856732e+00  9.5654012013776168e-01  6.9190308251982324e-01  3.8752472238784536e-01  -4.4900478710208969e-01  -4.7687601823991332e-01  -4.5007365538984057e-01  -4.6841453889236023e-01  -4.6668777673571549e-01  1.5249628636743384e+00  1.4840325659643447e+00  1.5242672446705896e+00  -4.5664406938597046e-01  -4.0443260849417806e-01  1.5321884488740418e+00  1.6165379930619308e+00  -4.9179382461520427e-02  9.9985383164279351e-02  1.4040839219621062e+00  1.0770221148760706e+00  -4.6263119507884687e-01  5.4393413880850983e-01  1.5054488634983485e+00  4.5583210110629252e-01  -5.0871460315535000e-01  3.8848070101754584e-01  1.4225288758083028e+00  -1.8713379205143696e-01  -9.9802086380019805e-02  -1.1769409122016170e-01  1.4886349085962752e-01  5.3557082853565452e-01  1.5115489463709781e+00  1.0658563703356805e+00  9.6089908268140722e-01  1.1168279560219867e+00  5.5718102308580375e-01  -3.8809074832474610e-01  -1.2716780575961872e-01  -3.8314445575270847e-02  1.3924170020719123e-01  8.2682457615271665e-01  -4.4649566060181450e-01  1.0579115189495682e-01  8.7964980150213434e-01  1.3107761190928486e+00  1.2506570917091677e+00  -4.8026705491996630e-01  -4.6305853180520851e-01  1.1315785747337854e+00  1.1122418456304231e+00  1.2507039392639001e+00  1.3746261582975334e+00  1.3402827418128989e+00  9.0713301542792169e-02  -2.5709670387366845e-01  -4.8175367410171221e-01  -9.6903023160845425e-02  -1.8226746014618894e-01  -3.5776865625685222e-01  1.1090236902563202e+00  -4.2573243228897173e-01  4.8911622588954001e-01  -1.6693916860253388e-01  3.2315600388215948e-01  -4.7920547130053803e-01  7.7785528804521742e-01  6.5207211360941264e-01  1.1412868875644635e+00  2.1916654317395007e-01  -6.8251408806841635e-02  1.5687098096814884e+00  1.4611759620287101e+00  -3.2019573235840398e-01  -6.3738830614695152e-02  1.8558991641678660e-01  1.6319233014450141e+00  1.6547676743412030e+00  1.2814743247760243e+00  1.5202620740825403e+00  -4.8175367410171221e-01  -4.9399871249274231e-02  1.0467907867324733e+00  6.2751715699973243e-01  1.0569670254065411e+00  -4.1618843864615906e-01  4.5544546450078094e-01  -4.5334794747014767e-01  -4.7640392029220285e-01  3.0576221332584358e-01  -3.6698863808491289e-01  -4.5289317286096653e-01  3.4667947811554861e-01  -3.6014571660069716e-01  -2.3599549576864765e-01  -1.1003433909248224e-01  1.6372095371028197e+00  1.0416932325248994e-01  -4.1900575788904970e-01  -4.8175367410171221e-01  1.1995858579489740e+00  -4.5286538228888246e-01  1.5312115203171657e+00  -3.4517324791650628e-01  4.8820582646424471e-01  8.7144751359352801e-01  1.3497159382008332e+00  -4.3447174466921373e-01  8.2807337945847015e-01  -4.6724028008855112e-01  7.7255603254132874e-02  -3.9707729279119092e-01  -2.8410485390248091e-01  1.0490865210457272e+00  -3.6165690249945492e-01  -4.8175367410171221e-01  -4.7184687217062848e-01  -1.7638942130051855e-01  -4.0648927700998572e-01  -2.6886603714101281e-01  -4.2363273955958808e-01  -4.1212981818611516e-01  -3.3139789578307494e-01  1.3989288424073187e+00  1.3738377921682361e+00  1.3295381033773717e+00  -4.8588398389685306e-01  -3.7323907121314503e-02  2.6715277979880125e-01  7.0230511291467357e-01  2.6061298684624956e-01  -1.4859269081531912e-01  1.0738165589178901e+00  -2.7915717735566414e-01  -4.2894818713611110e-01  8.4946302640476354e-02  -4.5580944047958794e-01  2.0597145206770653e-01  2.1182597757853749e-01  5.3087970094390702e-01  1.4956975178999916e+00  6.6011424931543039e-01  1.0738165589178896e+00  1.4773816348768438e+00  1.3578738454367738e+00  1.1609899467244726e+00  -4.1931489135463129e-01  7.7698205215396199e-01  2.4377332763349663e-01  1.0163912317293147e+00  6.8697353556676288e-01  -4.8175367410171221e-01  3.2315600388215948e-01  1.8450360386816184e-01  1.3371812930810301e+00  -4.6271386523192010e-01  -4.0183864486241655e-01  -2.9939503298456061e-01  8.3049744693887717e-01  3.5702131553165922e-01  -3.9533910325928651e-01  1.4962740434184443e+00  -3.2058051154250944e-01  1.2863865652817539e+00  -4.8175367410171221e-01  -1.9337003962666376e-02  9.2503139396446672e-03  2.1503628024728982e-01  -4.5955968633225031e-01  -4.4952151415334984e-01  9.1743298673876184e-01  7.7555200325168450e-01  6.0746851540708013e-01  6.1498238117860271e-01  1.1076914608196506e+00  1.0067232564392585e+00  1.6477561972967893e+00  3.8459353152132980e-01  -4.6768735910022902e-01  1.2344257269881109e+00  2.4088260223586697e-01  -4.6250280630342344e-01  -1.0758788397372242e-01  -4.5100683422922111e-01  7.1333664791441598e-01  8.7283516209426659e-01  5.8224700906965277e-01  8.5823027956814812e-01  -2.0093343783669917e-02  7.5703422435936152e-01  8.7623585325783304e-01  1.0207647916348324e+00  -4.6253895450494265e-01  1.2849145855344153e+00  -3.9912128121773266e-01  -3.5697141894375106e-01  8.3579494427294942e-01  1.0593266087498807e+00  1.3534014110381396e+00  7.2884373771975741e-01  -4.4264177323203469e-01  1.3157893081475414e+00  1.0865575948699220e-02  2.9872643428074303e-01  4.4992919927877578e-01  6.5273263788152491e-01  -2.5370663086176110e-01  -4.1589338936462528e-01  1.5330480973875200e+00  1.5838974176849219e+00  -3.9860348418368441e-01  1.5897651918901736e+00  1.2403374681879302e+00  -5.0811238323407326e-01  -5.0938669218989818e-01  -5.1409427853476131e-01  1.1633087317376691e+00  -4.4490938476063707e-01  1.6252577946362197e+00  -4.8175367410171221e-01  -1.1184002823418944e-02  5.7848858530017699e-01  -4.2679309654669145e-01  1.6620755977063989e-01  -3.8001889412981643e-01  1.5302622554305727e+00  -2.6807888277424996e-01  1.4835048395616759e+00  1.0144041183073778e+00  2.3237650550602185e-01  -4.5293328185805509e-01  -3.9664068309527720e-02  1.3490641386316857e+00  1.4912543190804861e+00  1.1031382887876473e+00  1.6475388320888706e+00  2.9842636095260333e-01  3.2315600388215948e-01  -4.7619304894522907e-01  1.0102678385148922e+00  -4.1606799458370675e-01  5.0416376999449612e-02  1.6504998219829570e+00  -3.6149599338417066e-01  6.1014163333441918e-01  -2.7891964974189404e-01  1.5427775054248700e+00  7.7698754021756689e-01  -4.0476350626688329e-01  -4.7626357111484308e-01  -4.7841686730611133e-01  -4.6737620947283948e-01  1.4082289802492873e+00  1.3497159382008332e+00  1.1079607183259728e+00  7.1169808568819792e-01  -3.4964915410861314e-01  1.4829414338010098e+00  -4.9802436021696450e-01  1.6228227691176260e+00  1.4527291634924697e+00  -4.8175367410171221e-01  1.1038855147854844e-01  9.8325876594991157e-01  4.9704271785573750e-01  2.6035300752430923e-01  5.3769395230194494e-01  1.3126779876205572e+00  3.2069860023288760e-01  1.4642717228250905e+00  1.5281665242449400e+00  -4.8175367410171221e-01  -4.8175367410171221e-01  1.0680326545098895e+00  -4.8175367410171221e-01  -3.6958660376691893e-03  -4.9204068846953553e-01  -3.7323907121314503e-02  -4.8175367410171221e-01  -2.5332830611753626e-01  -2.2617839246516125e-01  -2.8036297715184333e-01  1.4488861089058047e-01  -3.8184663918842005e-01  -4.7285281234844828e-01  7.2490509803532621e-01  3.2315600388215948e-01  -4.8943298766817128e-01  -5.0115247046692302e-01  -4.3524517153007336e-01  1.2694334532926810e+00  -4.7456104805516125e-01  -3.6081855262350460e-01  -1.9484311372347682e-01  1.1451258147001513e+00  1.5349640404772276e+00  6.5652181327978765e-01  8.0762354927263047e-01  8.6457725307264499e-01  5.4236152793902359e-01  1.0763618595019280e+00  -4.4402658976150478e-01  1.5401813222036582e+00  2.8581600331294588e-01  1.5376742474784246e+00  1.5281320173827864e+00  -4.2357907407855416e-01  -1.1595785064308589e-01  -4.5888754333441550e-01  1.4919234074903467e+00  1.3164670309015158e+00  -4.8175367410171221e-01  -3.1322328640425745e-01  1.3497159382008332e+00  -3.7323907121314059e-02  -4.8175367410171221e-01  -4.6253895450494265e-01  1.4990316063015183e+00  -4.8175367410171221e-01  7.1333664791441598e-01  1.0738165589178901e+00  -4.8175367410171221e-01  -4.8175367410171221e-01  1.4990316063015183e+00  1.4990316063015183e+00  1.3497159382008332e+00  -4.8175367410171221e-01  -4.8175367410171221e-01  -4.8175367410171221e-01  -4.8175367410171221e-01  -4.8175367410171221e-01  -4.8175367410171221e-01  -4.8175367410171221e-01  -3.1322328640425745e-01  -4.8175367410171221e-01  -4.8175367410171221e-01  -3.1322328640425745e-01  -4.8175367410171221e-01  -4.8175367410171221e-01  -4.8175367410171221e-01  -4.8175367410171221e-01  7.1333664791441642e-01  1.4990316063015183e+00  -3.1322328640425745e-01  -4.6253895450494253e-01  -4.6253895450494253e-01  -4.8175367410171221e-01  -4.8175367410171221e-01  1.0738165589178896e+00  7.1333664791441642e-01  -3.7323907121314059e-02  4.6054339016190271e-01  1.4785372125777390e+00  8.5016229673010957e-01  8.8979441069228304e-01  6.4121259419948229e-02  1.5292872777010300e+00  -3.3407367012910333e-01  -3.1786179394023512e-01  -3.8314831802674665e-01  1.1785819285215047e+00  -4.8870999734964826e-01  -4.8054853191697539e-01  -2.4251339637839978e-01  -4.3345133819535003e-01  -4.1587657313344722e-01  -4.6483853350005344e-01  -4.3911313073988362e-01  -4.7106499392163032e-01  -4.7223599670723981e-01  1.3712829915799554e+00  1.6174890960008759e+00  1.4546880450225328e+00  -2.7276019543677199e-01  1.4944884586283482e+00  -3.9237802742715439e-01  5.2894030532887215e-01  -4.1251348165827684e-01  1.3311299912111738e+00  1.5364441969437028e+00  -1.7257681369002359e-01  8.4895427066578255e-01  -1.1606972775484668e-02  3.0044408708363857e-01  7.3332801779598450e-03  -2.0543066121915682e-01  1.2553970833672035e+00  -2.7539710125521388e-01  7.0802714010511869e-01  8.1739535289207799e-01  5.7469252909975588e-01  4.2279448782610235e-01  1.0162533397030853e+00  -1.8531979180059971e-01  1.5497517956491211e+00  1.4229760722781755e+00  1.3787514102432958e+00  1.1790074803265993e-01  2.3560742237930521e-01  1.5373858379545502e+00  1.4781350164410823e+00  1.5580773413789413e+00  4.3803338783697970e-01  -4.6215507612270101e-01  1.3731361242586801e+00  -5.0732917852588606e-02  -2.9277283026608591e-01  -1.8515468505553095e-01  1.4949531491142538e+00  7.7317943218144769e-01  1.5674030602643072e+00  2.6422198426724902e-01  1.5720299429821233e-01  -3.2522996015404443e-01  1.2640781782226895e+00  -3.2569572594452711e-01  -1.7705854500460080e-01  -2.2229876769797866e-01  9.7240170825250782e-01  4.1796570311309356e-01  1.0206622734756630e+00  1.3754755487754040e+00  1.4811711430543242e+00  9.7515963051768337e-02  -3.5692164745365303e-02  -9.1987520283941693e-02  1.3747658408928434e+00  1.4388455079476068e+00  -2.1482470136894460e-01  1.4643635633638741e+00  1.5628820634736287e+00  9.4196284369310868e-01  9.5449100957161626e-01  1.7634689864966910e-01  -4.1903680946502819e-01  1.3838989749696786e+00  1.4934756508648044e+00  -4.7029280263642054e-01  -1.0843045705228345e-01  1.1052433380847000e+00  1.4675514897923956e+00  5.0653044374787604e-01  -4.1533054718519408e-01  -3.8263338831247989e-01  -3.6115709123970857e-01  -4.6073622664573699e-01  8.6786575464958393e-01  9.1529841090167263e-01  4.1650038990389332e-01  4.6909251563889098e-01  -2.5702283770679529e-01  -2.8507880143155623e-01  1.4270607605892611e+00  1.0385398484084083e+00  -3.0061016827204273e-01  -3.0318680597126046e-01  1.4499931406813555e+00  1.0843827102853711e+00  -1.8096811216641592e-01  -5.4021347938794359e-02  4.2713325492870224e-01  2.2830078519853048e-01  4.0107160719685570e-01  -3.993038