<?xml version="1.0"?>
<VTKFile type="UnstructuredGrid"  version="0.1"  >
<UnstructuredGrid>
<Piece  NumberOfPoints="15681" NumberOfCells="30848">
<Points>
<DataArray  type="Float64"  NumberOfComponents="3"  format="ascii">0 1 0  0 0 0  1 0 0  1 1 0  0.5 0 0  1 0.5 0  0.5 1 0  0 0.5 0  0.5 0.5 0  0 0.25 0  0.25 0 0  0.25 1 0  0 0.75 0  1 0.25 0  0.75 0 0  1 0.75 0  0.75 1 0  0.7083333333333333 0.2916666666666667 0  0.2916666666666666 0.7083333333333334 0  0.375 0.25 0  0.75 0.625 0  0.2569444444444444 0.4652777777777778 0  0.5366379310344828 0.7535919540229885 0  0.1875 0.1875 0  0.8125 0.8125 0  0.869047619047619 0.375 0  0.1450441919191919 0.6052714646464646 0  0.375 0.8690476190476191 0  0.5526960784313725 0.1825980392156862 0  0.8385416666666666 0.1614583333333334 0  0.1614583333333333 0.8385416666666667 0  0.6736111111111112 0.4652777777777778 0  0.1367521367521368 0.3477564102564102 0  0.6570970491253563 0.8648656830417855 0  0.5102479397556124 0.3386260301221938 0  0.3654513888888889 0.5737847222222222 0  0.6929750044954185 0.1362784921584263 0  0.388576102743835 0.411911725237599 0  0.6091269841269842 0.5942460317460317 0  0.875 0.6875 0  0.427278890279516 0.119889445139758 0  0.8544456845238095 0.5213913690476191 0  0.125 0 0  0 0.125 0  1 0.875 0  0.875 1 0  0.1280008648150532 0.4769292340226777 0  0.2695382451711197 0.3321750950221553 0  0.7031567235715964 0.7447810921428012 0  0.625 0 0  0.375 0 0  0.125 1 0  0.875 0 0  0 0.375 0  0 0.625 0  1 0.375 0  0.375 1 0  1 0.125 0  0 0.875 0  0.625 1 0  1 0.625 0  0.2979288363930608 0.1201429454643536 0  0.410919540229885 0.7484605911330049 0  0.5325041980395562 0.878905151526474 0  0.4831670727569156 0.6331060043826487 0  0.1735997378973042 0.7204747378973043 0  0.2534919507575758 0.5772372159090909 0  0.2633928571428572 0.8876488095238095 0  0.8199404761904761 0.2730654761904762 0  0.75830270586982 0.3919383189517417 0  0.5750282248382511 0.4237522353023667 0  0.6008360210023379 0.2794828358598495 0  0.08163442644334186 0.6821295860397322 0  0.08333333333333333 0.1875 0  0.2028380815996574 0.08844602719988583 0  0.2766521142611967 0.2325436572164097 0  0.90625 0.78125 0  0.890625 0.890625 0  0.7545696325008384 0.8973565441669461 0  0.5625 0.08086590340834317 0  0.09077380952380953 0.09077380952380952 0  0.4610923478694773 0.209034015149656 0  0.7542527598351648 0.5248380520595106 0  0.6459235536037465 0.3619913988405765 0  0.7560381768882634 0.20506142233852 0  0.07073252688172042 0.8125 0  0.0924753097241701 0.9078102849914793 0  0.9292674731182795 0.1875 0  0.9075246902758297 0.09218971500852073 0  0.8125 0.07073252688172045 0  0.2400955776842301 0.7869705776842302 0  0.9121050213379069 0.2781978201831695 0  0.7916878157143976 0.7239689078571988 0  0.9345238095238094 0.4375 0  0.4375 0.9345238095238095 0  0.3725616989755203 0.6651895248862173 0  0.06536271996350887 0.5625 0  0.9348362560379583 0.5625 0  0.456646798987055 0.8277247094351965 0  0.1875 0.9355758238725954 0  0.6169761231634859 0.6939779188977889 0  0.6226854751147515 0.7827911461419014 0  0.3305695598137626 0.7901697871282585 0  0.5865305325818898 0.5101085479043448 0  0.6622701297028378 0.2177663989757395 0  0.1354166666666667 0.2591702279202279 0  0 0.3125 0  0.2094429575680048 0.3936361846162499 0  0.836666296419157 0.607917407161686 0  0.6875 1 0  0.214261555450504 0.6492551722020035 0  0 0.4375 0  0.07731537126068377 0.40625 0  0.3427725432967068 0.4879566233699599 0  0.3550792513951871 0.3331953632609953 0  0.4462473953896857 0.2887834789342508 0  0.4747801464819794 0.417386052030127 0  0.8229836475148948 0.4443292349237342 0  0.7322605135514757 0.8199240278289671 0  0.6756431877205955 0.5468989748126787 0  0.1968419507215863 0.5194573482612496 0  0.3285590277777778 0.9345238095238095 0  0.8125 1 0  0.4198917601920009 0.5134893045331258 0  0.5232405503206691 0.2595791787880157 0  1 0.9375 0  0.1987510870015086 0.3025185951894431 0  0.5625 1 0  0.6005390654136388 0.9228110509230952 0  0.6411254848194414 0.07704872765442942 0  0.3357233162523242 0.1855113224530532 0  0.6730653396610877 0.6393887462324165 0  0.310966987234063 0.6240019765311626 0  0.7368737836204349 0.07457755202327881 0  0.6192316414418171 0.1485238406378594 0  0.5432429670607106 0.678552703844006 0  0.4754371679695679 0.7103946803120881 0  0.07501324890749672 0.3043839897335739 0  0.5358146975860403 0.5688321463205916 0  0.3115271739500156 0.3982137365971444 0  0.3625191397122174 0.0767854603650549 0  0.5024029442563831 0.1264128223758444 0  0.4375 0 0  0.4699946908887376 0.06379961173775725 0  0.9375 0.71875 0  0.9272105898044465 0.635671179608893 0  0.9375 1 0  0.6690971819568612 0.9331530898202766 0  0.1073454944778885 0.7499206387638554 0  0.8699082999280406 0.2232403652524313 0  0.5773118091863964 0.3548027349159383 0  0.1354166666666667 0.1428571428571428 0  0.3125 0 0  0.8241684193077341 0.9257452995055244 0  0.4352314948354036 0.3586940847489378 0  0.4351301473778832 0.5819726043539077 0  0.8073232928518163 0.3419398170341962 0  0.7775949246947366 0.1298519409204575 0  0.6875 0 0  0.7413513991851041 0.457933324954483 0  0.939453125 0.841796875 0  0.5630355154606987 0.8171875156478349 0  0.9345238095238095 0.3461466592368577 0  0.9375 0 0  1 0.0625 0  0.0625 1 0  0 0.9375 0  0.06552178593177167 0.4969053669623468 0  0.1424866619031703 0.4130277709291224 0  0.1275287182444726 0.5422946908002588 0  0.2637686595586339 0.06413888464529549 0  0.2524263535491086 0.1697437503243817 0  0.7367218397988525 0.6888573970660841 0  0.0625 0 0  0 0.0625 0  0.8463594539285995 0.7578283617857982 0  0.3128751192101563 0.2851997374369947 0  0.4015281788351144 0.1806421385113692 0  0.1910251795116588 0.4553332197174453 0  0.287797471442006 0.5222621440543902 0  0.3962628745986055 0.8097380085535307 0  0.3505895299554843 0.7304878890838692 0  0.5019151500495276 0.9356042615328103 0  0.9374389419410134 0.4999931039076005 0  0.3125 1 0  0.1875 1 0  1 0.5625 0  0.4375 1 0  1 0.3125 0  1 0.4375 0  0.8125 0 0  1 0.1875 0  0.5625 0 0  0.1875 0 0  0 0.1875 0  0 0.5625 0  0 0.6875 0  0 0.8125 0  1 0.6875 0  1 0.8125 0  0.8021696218581627 0.6612893947866073 0  0.06154922295426143 0.6239401126946708 0  0.9359375 0.9359375 0  0.4666158024849896 0.7691515918155014 0  0.2318201265217025 0.7064974250277525 0  0.1565954253579966 0.6635489312486841 0  0.1598132503680848 0.7787147500325552 0  0.3146529991605639 0.8510876378205265 0  0.1461873209418733 0.05982804528877814 0  0.06109554988524315 0.2446551776247686 0  0.8054950308560754 0.5564226538848541 0  0.470541749491976 0.8853316336952531 0  0.6948472567465137 0.4042308563372457 0  0.8802828472348889 0.4658893256343853 0  0.6788075634946739 0.7974194205806069 0  0.2155048659603867 0.2428201584940968 0  0.8131223143423806 0.2132171049028394 0  0.4330798005432235 0.6671274900735726 0  0.6015279126162613 0.2187368078743274 0  0.8061636571464289 0.8703766630361714 0  0.7008230445061776 0.3478568388444072 0  0.8638466246958771 0.3147095987735538 0  0.204801534004265 0.8789209409594009 0  0.2449006736431132 0.9424182882803838 0  0.7611268409371427 0.2643056884799992 0  0.7552800864046191 0.7678006649959446 0  0.5983639638906616 0.864113435029236 0  0.1956559506814437 0.577281203577426 0  0.3527670268164207 0.1320469097565204 0  0.7530364577483248 0.3262386077083089 0  0.4535919187979363 0.4690107087451527 0  0.8824869791666666 0.8336588541666666 0  0.8814453125 0.9451171875 0  0.5582987942628019 0.622421666543858 0  0.6817532446064828 0.6939001801354731 0  0.3830295138888889 0.9450968952922078 0  0.4140603937012541 0.05211333372716105 0  0.5535864501303013 0.3060591985391672 0  0.6560130086346878 0.2729726562211558 0  0.890203140221684 0.5948314305427268 0  0.7043857725999024 0.593980890020804 0  0.5105843922695152 0.8016828014338627 0  0.05365910753708378 0.7315110031682004 0  0.616904573672261 0.4621186633436136 0  0.5338511646455415 0.387875898899613 0  0.5231769258947843 0.4477682463140762 0  0.650302973237622 0.7370722302085519 0  0.3927483139621257 0.4662414504529014 0  0.8034595960585199 0.4972538342758211 0  0.7738337841682438 0.9496376207663251 0  0.7193737507158268 0.954685447650112 0  0.482525916480686 0.5528257169991676 0  0.2533501157346781 0.2809495420003238 0  0.3118487924482243 0.5702930126570319 0  0.6257598847669529 0.4104163315430518 0  0.1354166666666667 0.1955605158730158 0  0.04166666666666666 0.15625 0  0.3956448985530264 0.6174149462065157 0  0.8102897701818546 0.3938784238208349 0  0.2641154190013625 0.8344469561943118 0  0.642852220770013 0.5068794586563659 0  0.05271458179508221 0.355846947336007 0  0.7021551360070266 0.8921457280225779 0  0.5692125776683765 0.1328512638850284 0  0.5206162811937602 0.04865158770992991 0  0.6001838442201555 0.04540556991297563 0  0.2597716608242787 0.4118346398477178 0  0.4040584599473195 0.3179589136784675 0  0.1480337679295207 0.8941560631483065 0  0.1344356707112281 0.9466251177415842 0  0.7114696411829317 0.4983917389078826 0  0.7585704698442475 0.5751926345944629 0  0.2189131956390871 0.04022068508159698 0  0.2476935455192043 0.1123642267635843 0  0.185995005654517 0.1365524537205238 0  0.6223414373308711 0.643380839165121 0  0.5732602596637543 0.7190051747306219 0  0.268358222364537 0.6586246524467934 0  0.3265879848129173 0.2369791782191225 0  0.1267095595787346 0.7034787238999181 0  0.1115202922226038 0.6421997933884982 0  0.3128688392940203 0.07260997451790079 0  0.550724900485678 0.9253360991633187 0  0.7142608810459105 0.2384904702214873 0  0.7045869185243887 0.1871826897887429 0  0.890625 0.734375 0  0.953125 0.765625 0  0.2111812642821677 0.8286209446459138 0  0.9590293078204457 0.09375 0  0.953431269039847 0.1435719386408004 0  0.04097069217955424 0.90625 0  0.04656873096015299 0.8564280613591996 0  0.1078743037981226 0.8541621766048062 0  0.8921256962018773 0.1458378233951939 0  0.8521576979194619 0.1084496634207678 0  0.8655663982740958 0.05464346096571447 0  0.04005659640905543 0.09375 0  0.1001448316533417 0.0424677624422826
[...]
<PointData  Scalars="f_15764"> 
<DataArray  type="Float64"  Name="f_15764"  format="ascii">0.0000000000000000e+00  0.0000000000000000e+00  0.0000000000000000e+00  0.0000000000000000e+00  0.0000000000000000e+00  0.0000000000000000e+00  0.0000000000000000e+00  0.0000000000000000e+00  5.0823754250462583e-01  0.0000000000000000e+00  0.0000000000000000e+00  0.0000000000000000e+00  0.0000000000000000e+00  0.0000000000000000e+00  0.0000000000000000e+00  0.0000000000000000e+00  0.0000000000000000e+00  -1.7783386968799522e+00  -1.7753954852701657e+00  -1.3746961888083453e+00  -1.6756788014181072e+00  -8.1296583444975279e-01  -9.2224505669007728e-01  -1.0185594404905993e+00  -8.5348621789203616e-01  -8.9052649478676960e-01  -1.7065725531851952e+00  -9.2151820555789932e-01  -1.3856779268066524e+00  -1.1091098405125168e+00  -1.1095978360728385e+00  -1.0967784917673613e+00  -1.0065425384526454e+00  -1.0121420587568952e+00  -5.3589945405436301e-01  -1.9153950570360445e+00  -1.5082169727758812e+00  -5.7074677154901476e-01  -2.9202222691439088e+00  -8.7530755792310111e-01  -8.3991208156505115e-01  -3.6746817189103648e-01  0.0000000000000000e+00  0.0000000000000000e+00  0.0000000000000000e+00  0.0000000000000000e+00  -7.1074533361879377e-01  -1.4593024588062946e+00  -1.5880097350852569e+00  0.0000000000000000e+00  0.0000000000000000e+00  0.0000000000000000e+00  0.0000000000000000e+00  0.0000000000000000e+00  0.0000000000000000e+00  0.0000000000000000e+00  0.0000000000000000e+00  0.0000000000000000e+00  0.0000000000000000e+00  0.0000000000000000e+00  0.0000000000000000e+00  -9.1402547054814143e-01  -1.3205038868267964e+00  -3.1282001845383284e-01  -5.0111454827226742e-01  -1.6258389604112427e+00  -2.1176006533897387e+00  -9.2054991921068330e-01  -1.4164501998231094e+00  -1.2634511877446988e+00  -1.6091595921600532e+00  -2.3012298327763840e+00  -1.0210203413873187e+00  -5.1383114781627903e-01  -5.8862093205324983e-01  -1.3846345532715676e+00  -5.7210732764375660e-01  -4.6810133604891419e-01  -6.8098213805531571e-01  -8.3182555595122343e-01  -3.0199317509072687e-01  -8.9181746755513858e-01  -7.1611452086101557e-01  -1.4313710835782902e+00  -1.6466399861246266e+00  -6.5098361836114982e-01  -4.8167764517339379e-01  -5.8023725770481693e-01  -4.8086875858432043e-01  -6.4464851312625016e-01  -1.6739569104985488e+00  -6.6518481551517394e-01  -1.3715729078811514e+00  -2.1221323018060856e-01  -2.2030984888311039e-01  -1.7445934331355615e+00  -6.8295247127080605e-01  -2.5507638863474519e-01  -6.9047635234429805e-01  -5.1928285390168916e-01  -1.9792288458294525e+00  -1.6208752130246979e+00  -1.5897747927222177e+00  -1.5618367285024402e+00  -1.9866789509711371e+00  -9.8527953427780646e-01  0.0000000000000000e+00  -1.3023351743987932e+00  -1.3328516874053020e+00  0.0000000000000000e+00  -1.8682625224463851e+00  0.0000000000000000e+00  -6.3711046616459244e-01  -3.7807403885353447e-01  -1.2191730132275473e+00  -7.9500777440710579e-01  1.5666796622878501e-01  -7.4966748737201316e-01  -1.1933598545902278e+00  -1.7371569354791936e+00  -9.7084316744246224e-01  -4.8179231118523386e-01  0.0000000000000000e+00  -3.2712321077785606e-03  -1.0088407132785633e+00  0.0000000000000000e+00  -1.3254702869960497e+00  0.0000000000000000e+00  -6.3737035173093581e-01  -9.1324025219626381e-01  -1.2469993629836063e+00  -1.8737816037745818e+00  -1.9050407746408815e+00  -8.6711266592870728e-01  -1.6621640821645809e+00  -1.6467202134908903e+00  -4.8134055864174208e-01  -6.1598439889122492e-01  -1.6955682964102139e+00  -1.1265098209851905e+00  -6.1398254396474750e-01  -7.1405830658184055e-01  0.0000000000000000e+00  -4.1404710386279747e-01  -3.6249238494214975e-01  -5.0960503928764544e-01  0.0000000000000000e+00  -4.3771116470530980e-01  -1.1345693546541877e+00  -1.0845189711605139e+00  -2.0207550254177606e+00  -6.5917881918877697e-01  0.0000000000000000e+00  -4.4933298438040198e-01  -5.1238002723342124e-01  -1.6352134961726161e+00  -1.2155605044039672e+00  -1.2101705713641568e+00  0.0000000000000000e+00  -9.8155933818629015e-01  -3.5254754837179614e-01  -1.0348149673234195e+00  -4.1500031424591166e-01  0.0000000000000000e+00  0.0000000000000000e+00  0.0000000000000000e+00  0.0000000000000000e+00  -4.1742306630768033e-01  -1.0123641371505319e+00  -9.7757552074110898e-01  -5.0921841111705590e-01  -1.1488661965827796e+00  -1.8866676583063193e+00  0.0000000000000000e+00  0.0000000000000000e+00  -8.4370393883115713e-01  -1.4848653296443661e+00  -1.1959091922684928e+00  -8.9996389429879164e-01  -9.0805689086674390e-01  -1.0108303253133186e+00  -1.7770959938660413e+00  -4.8068975576427114e-02  -5.0317992602574066e-02  0.0000000000000000e+00  0.0000000000000000e+00  0.0000000000000000e+00  0.0000000000000000e+00  0.0000000000000000e+00  0.0000000000000000e+00  0.0000000000000000e+00  0.0000000000000000e+00  0.0000000000000000e+00  0.0000000000000000e+00  0.0000000000000000e+00  0.0000000000000000e+00  0.0000000000000000e+00  0.0000000000000000e+00  0.0000000000000000e+00  0.0000000000000000e+00  -1.3136333209970932e+00  -7.8168947110160047e-01  -2.3044536609492061e-01  -5.0347989407215232e-01  -1.8053129127764795e+00  -1.6604374811867568e+00  -1.3953959086414724e+00  -1.0982958430176335e+00  -3.1287091227265579e-01  -4.5706520688935687e-01  -9.1956587135174461e-01  -2.6225712783256611e-01  -1.3970238926525052e+00  -2.7161242916090056e-01  -1.4870782008619432e+00  -1.3018276767344816e+00  -1.3612024858840730e+00  -1.2523761547524996e+00  -2.1849682497903702e+00  -7.0775134341369972e-01  -1.6477516470007725e+00  -1.1691576926059362e+00  -9.4024682720038522e-01  -4.8539643317575160e-01  -1.6509489436443838e+00  -1.1926792875441414e+00  -1.1651932643655103e+00  -1.8900741176837541e+00  -9.7847282906052824e-01  -1.6823926144689241e+00  4.8090550824181361e-01  -6.1082637029773856e-01  -2.9540000399113220e-01  -1.9111139335385035e+00  -2.0547680225005842e+00  -3.8287976714257738e-01  -4.3652154914757457e-01  -1.5599867175040580e+00  -1.9808552915194240e+00  -8.5972225672008240e-01  -2.0092469060996079e+00  -5.0097754533865690e-01  -6.4068906526736336e-01  -9.9361259672978341e-01  -6.7311607977931565e-01  1.0240159799730987e-01  -1.7542597162480795e+00  -9.9464718959595022e-02  -4.0244629781835312e-01  -3.4557752514545392e-01  -2.7183717586456707e-01  -5.7212777909281010e-01  -1.4402791741787673e+00  -2.0009443971215708e+00  -1.2186955777683948e+00  -8.3320158696172231e-01  -2.2983824437564512e-01  -1.5842847970444518e+00  -1.0278483206486595e+00  -1.3620135250393657e+00  -5.0061416493508604e-01  -4.3454049626528946e-01  -7.6410104463528461e-01  -1.3562219283356700e+00  -3.5172601147181426e-01  -6.1353191119918504e-01  -1.1829607086488454e+00  -1.0546352267574890e+00  -7.7135200461722242e-01  -4.0922686064506841e-01  -4.7836284419910641e-01  -1.5611369072349002e+00  -2.9359429846305901e-01  -8.1790672040738011e-01  -8.0708290308471031e-01  -1.6506589401639333e+00  -1.7438124969825115e+00  -2.0297486302906842e+00  -1.4221910490329983e+00  -1.3515783464739428e+00  -1.2409682116876963e+00  -6.0829304949021268e-01  -3.5915218282157485e-01  -1.7883378982885156e+00  -1.7034966345309133e+00  -7.6956407001702842e-01  -2.8750856370252775e-01  -1.3669919874942322e+00  -2.3932029479268843e-01  -3.5835086463137222e-01  -2.4497547982898030e-01  -3.8378528876558970e-01  -7.7872540888628983e-01  -7.6374103644439506e-01  -7.8197143120672585e-01  -4.3408254531505103e-01  -1.4214309458515303e-01  -1.6942167691209811e-01  -2.2566136649903945e-01  -2.3105604966510357e-01  -5.7750414213595391e-01  -8.5846138994013985e-02  -1.0601341353025635e+00  -8.4150476207850744e-01  -9.1530088951092947e-01  -1.1692690539582347e+00  -1.0527470259836662e+00  -2.3376573305882120e+00  -7.1268163728248246e-01  -4.3075943451604432e-01  -4.8218340432243117e-01  -4.5993506884859975e-01  -4.2781344343017941e-01  -3.6211164579294469e-01  -2.6191868361524279e-01  -1.6007261246948268e+00  -1.6040832497491246e+00  -2.0277589832263425e+00  -8.4692959051241512e-01  -1.7405068297135622e+00  -1.7544011419554870e+00  -1.5225258868112268e+00  -1.2313959671701900e+00  -1.2963514663375164e+00  -1.9984265437615545e+00  -1.1499193097116087e+00  -2.9000328095358952e-01  -6.0012144744037066e-01  -2.5255581145851724e-01  -5.7011416159414963e-01  -2.4134513955744019e-01  -2.7110179258527739e-01  -1.2996094498652531e+00  -8.8527611530277583e-01  -1.2194040140829248e+00  -1.0367125938958801e+00  -1.5868908884245378e+00  -1.3988841387983306e+00  -1.3482846916253171e+00  -1.2743243278160943e+00  -1.1845401731672096e-01  -1.2508455695383003e+00  -2.6212442126997521e-01  -2.4235972279894988e-01  -3.1418687800443507e-01  -6.5902281965314791e-01  -4.2418906844523863e-01  -2.0262670109225680e+00  -8.1638504903023768e-01  -3.9883004944228750e-01  -2.4050277138079776e-01  -1.2974755363500512e+00  -9.9613930268255102e-01  -2.8010572533878919e-01  -9.1855653249379043e-01  -1.0715434497365304e+00  -7.1239063603145503e-01  -9.3774335952965404e-01  -3.9811453323323742e-01  -2.1469648478190836e-01  -1.0035046008387333e-01  -1.1066762274145238e-01  -1.0033003428371440e-01  -1.2482796208866860e-01  -9.8451091948295127e-02  -7.9603843096429139e-01  -1.7694898088401445e+00  -1.6088482569493838e+00  -1.9836302091874178e-01  -1.1235037636175200e+00  -5.1738394357533890e-01  -4.3849418471822010e-01  -6.4140641248104180e-01  -2.3108486648576618e+00  -5.3847831937479463e-03  -5.6180142543114497e-01  -2.0184036040224307e-01  -2.2570917742737706e-01  -1.3774511123071782e+00  -1.4425020382827722e+00  -1.3525485197513487e+00  -8.8021763120061225e-01  -1.6718164719096349e+00  -1.3176254946744612e+00  -8.3183405958574197e-01  -9.7142357389694256e-01  -4.9280413531397155e-01  -1.8726894613557084e+00  -1.2733737663113722e+00  -8.6659667706945065e-01  -7.7535758903454388e-01  -6.7522216325327011e-01  -8.4197416108076473e-01  -7.4950791480607315e-01  -9.6854007878624560e-01  -8.1836794255958090e-01  -2.7542398158263306e+00  -6.1322631473854128e-01  -2.8883308139465919e-01  -3.1774123004923460e-01  -1.1172795261596795e+00  -7.3476994568483300e-01  -1.4078082535300098e+00  -3.2288292125709411e-01  -3.1061358837735459e-01  -2.0738290744944368e+00  -1.3794072587979591e+00  0.0000000000000000e+00  -1.9232823942976913e+00  -1.9080931155482252e+00  -1.2821644706346229e+00  -7.4867427505280026e-01  -1.2139961315556078e+00  -3.4087650827142602e-01  -1.0092923229214774e+00  0.0000000000000000e+00  -7.3152911830943290e-01  4.0932261388787883e-01  -1.0144773710698129e+00  -1.1029059303095012e+00  -5.0852015406400752e-01  -1.1649458762125942e+00  -1.5195522385719606e+00  -7.7723343397143840e-01  -8.1031636838795251e-01  -1.4016431306979045e+00  -1.8579159457311878e+00  -2.0575312814136808e+00  -1.6773148390743930e+00  -9.9311511906755989e-01  -1.3613434651859311e+00  0.0000000000000000e+00  -9.5394551340993183e-01  -1.4544050966869255e+00  -6.7081953753639256e-01  -2.7403176017111369e-01  -6.1299774103029225e-01  -1.4447093158800406e+00  -4.2375986293058532e-01  -2.9708403220163904e-01  -7.4820076662356627e-01  -1.2911346454948875e+00  -5.5652466391721167e-01  -3.7852614613777180e-01  -1.2137687176751801e+00  -1.5938633936391081e-01  -1.3256553768931052e+00  -1.9074256884320449e+00  -1.8239599068138861e+00  -8.6537746121652770e-01  0.0000000000000000e+00  -1.0206004684390866e+00  -3.9914770709072539e-01  -7.7828957655470876e-01  -9.3510462687608886e-01  -3.7279000000259321e-01  -7.9626022821803144e-01  0.0000000000000000e+00  -1.1556973949797180e+00  -4.7449350886293784e-01  -3.4015555228683519e-01  -1.9206304820961555e+00  -6.4389357504728795e-01  -1.2550082753060758e+00  -5.1206424915263316e-01  -1.2044158599038202e+00  0.0000000000000000e+00  -3.4802480271534064e-01  -1.8526838201231266e+00  -8.2190780633698424e-01  -1.3426999517888578e+00  -1.1223301474592176e+00  -6.3952937108290142e-01  -9.5627909070065786e-01  -5.9438156678502940e-01  -7.5906227950186766e-01  -6.7573621731868816e-01  -3.4921914931598486e-01  0.0000000000000000e+00  -4.4101158252515399e-01  -5.3272001835357552e-01  -7.4199253719125191e-01  -8.2907941970282228e-01  0.0000000000000000e+00  -1.8168830197118579e+00  -6.0664737936510282e-01  -6.5020697371053882e-01  -1.0182926005525652e+00  -1.1541930705313443e+00  -2.2802846230896168e+00  -1.6589487273360519e+00  -1.1275845363517885e+00  -1.8994007134581661e+00  0.0000000000000000e+00  -4.7139262930082987e-01  -4.3035107737658268e-01  -9.1019396996416646e-01  -7.6888985209454153e-01  -7.6675442173802733e-01  -1.6235899702011920e+00  -7.3218509521848363e-01  4.9533509047176971e-01  0.0000000000000000e+00  0.0000000000000000e+00  -3.1739499272466543e-01  -2.2316950995849824e-01  -3.6987328041965661e-01  -9.7378406464359502e-01  -1.4488354056679602e+00  -1.4954912690250932e+00  -2.4360860614179497e-01  -1.0579392952125097e+00  -5.0348321450666589e-01  -1.1084995509746411e+00  -7.6838988894915294e-01  0.0000000000000000e+00  -1.4828303217529475e+00  -2.8905277532173895e-01  -3.2183461287383430e-01  -2.6356245401147643e-01  -8.4160139995807670e-01  7.6731995942316958e-02  -6.8056514102855370e-01  -8.7387875662207648e-01  -1.6610978040158595e+00  -7.6773289255717792e-01  -1.3402504687539363e+00  -1.4569136495552264e+00  -2.2004744294500189e+00  -3.4549276285514857e-01  -9.1712108595150232e-01  -1.2498831716279557e+00  -2.2460213364174808e-01  -9.2223669951927567e-01  -1.1021920750545811e+00  0.0000000000000000e+00  -1.1658166230652853e+00  -1.4180419923553771e+00  -1.5099277350701408e+00  -1.2449861396917787e+00  -2.5386958757195033e-01  -5.5230627399633847e-01  -2.5137539605660170e-01  0.0000000000000000e+00  -6.4549555062772057e-01  -7.8181297322669596e-01  -8.8795745154063810e-01  -1.4645304936431154e+00  -2.5028216669421610e-01  -7.3847948977577549e-01  -1.9393069729936152e+00  -3.6226649153000889e-01  -1.0603969235417126e+00  -1.9518472020904651e-01  -4.5395355354877082e-01  -1.0461969366326849e+00  -1.7169703703190402e+00  -5.4381357119432572e-01  -5.5060185051239208e-01  -1.1102126909192400e+00  -1.4713813396723658e+00  -1.1681232117269040e+00  -1.5672836512283619e+00  -4.9109976789077486e-01  -8.5491505629194964e-01  -6.1770786542390876e-01  -4.6875914389140977e-01  -1.0854911103315470e+00  -1.1839095769408980e-01  -1.5433589706228472e+00  0.0000000000000000e+00  -1.1577336519646311e+00  -3.1244036623543670e-01  -2.7105305790193496e-01  -2.1708333092391148e+00  -7.5648315818548328e-01  -8.3509888716278069e-01  -1.6001426008342903e-01  -2.4416277661865964e+00  -5.6667820082266995e-01  -2.2772348691347424e-01  -8.0265000902434547e-01  -2.1737840151621772e+00  -1.0972509941031410e+00  -2.3235658318803554e-01  -2.0585443489290092e-01  -1.5657210008939988e+00  -1.8473068698188426e+00  0.0000000000000000e+00  -7.9338813145791931e-01  -7.8787140985433976e-02  -8.7313534996743714e-01  -1.3670539206527441e+00  -1.5197462418836511e+00  -7.8241855639405955e-01  -1.6850043145937271e-02  -1.0582211549515814e+00  -5.7622237206676297e-01  -1.5935852222168756e+00  -7.5806800439756628e-01  -5.0984673878009990e-01  -2.6312944662377569e-01  -6.8653177232334806e-01  -1.3890657084522007e-01  0.0000000000000000e+00  -1.3930310016267708e+00  -6.5375285260085458e-01  -1.4481558613911505e+00  -1.2622354790971182e+00  -2.5929806425583124e-01  -1.3816433781100379e+00  -2.5890515742689568e-01  0.0000000000000000e+00  -8.5982718138703862e-01  -6.7209758610419224e-01  -4.8158837041800762e-01  -6.6836637705024660e-01  -6.1775536043016332e-01  -1.2156435285742178e+00  -2.2861692156489992e+00  -8.8230817223384703e-02  -1.1681171677557795e-01  0.0000000000000000e+00  0.0000000000000000e+00  -9.9666849802733581e-01  0.0000000000000000e+00  -3.5050742820707598e-01  -1.7848165940719465e-01  0.0000000000000000e+00  0.0000000000000000e+00  -1.1254116695681871e+00  -1.4774179828339804e+00  -1.4542916065081315e+00  -7.2630633118331112e-01  -9.1725236906076679e-01  -9.0604662417429993e-01  -1.9119399356165316e+00  0.0000000000000000e+00  -1.6044886074684517e-01  -3.0256278693218019e-01  -6.4866498865989852e-01  -5.8129235884533992e-01  -2.1686763350288091e-01  -1.3453335897433698e+00  -1.0338859120028538e+00  -8.1026134527936611e-01  -5.0302858182992916e-01  -1.3564296407914256e+00  -1.0158173420598484e+00  -1.6761127846833057e+00  -1.8027921085620877e+00  -1.0193727466247191e+00  -6.6201838723295958e-01  -1.8956057795768479e+00  -1.9480881452516803e+00  -7.5689453761689340e-02  -7.5969809339701030e-02  -6.1051331380721618e-01  -5.8647194115947088e-01  -2.3317466818126012e-01  -2.0514730452240212e-01  -2.5874230282682159e-01  0.0000000000000000e+00  0.0000000000000000e+00  0.0000000000000000e+00  0.0000000000000000e+00  0.0000000000000000e+00  0.0000000000000000e+00  0.0000000000000000e+00  0.0000000000000000e+00  0.0000000000000000e+00  0.0000000000000000e+00  0.0000000000000000e+00  0.0000000000000000e+00  0.0000000000000000e+00  0.0000000000000000e+00  0.0000000000000000e+00  0.0000000000000000e+00  0.0000000000000000e+00  0.0000000000000000e+00  0.0000000000000000e+00  0.0000000000000000e+00  0.0000000000000000e+00  0.0000000000000000e+00  0.0000000000000000e+00  0.0000000000000000e+00  0.0000000000000000e+00  0.0000000000000000e+00  0.0000000000000000e+00  0.0000000000000000e+00  0.0000000000000000e+00  0.0000000000000000e+00  0.0000000000000000e+00  0.0000000000000000e+00  0.0000000000000000e+00  0.0000000000000000e+00  0.0000000000000000e+00  0.0000000000000000e+00  0.0000000000000000e+00  0.0000000000000000e+00  0.0000000000000000e+00  0.0000000000000000e+00  -1.6245902246695372e+00  -1.8034310469613443e-01  -1.1934455797841512e+00  -2.5086021024979416e-01  -2.2673555115149053e+00  -8.0275954028582411e-02  -1.3643538024877102e+00  -1.3812014045323728e+00  -1.2035670844640460e+00  -6.6258916295962689e-01  -1.6863670237927389e-01  -2.1932459279472777e-01  -1.1386394445949559e+00  -8.2622723469141868e-01  -9.4607272822987543e-01  -4.0950794783300848e-01  -4.8875202160198189e-01  -5.1079795560699282e-01  -5.0272497573029040e-01  -3.5048906092234905e-01  -1.4565409648385945e+00  -3.3142146165942571e-01  -1.4125806997646577e+00  -1.6124534358134374e-01  -1.1808615973596550e+00  1.9430918724010754e-01  -1.0406798696673654e+00  -2.6804313370707256e+00  -2.2121183155559665e+00  -1.9401080732920355e+00  -1.2409254872865569e+00  -9.8624858290047324e-01  -3.3329779822428557e-01  -3.5405510710532190e-01  -1.3781748647065488e+00  -4.8982423015920695e-01  -1.3392357854571462e+00  -1.5559703650551369e+00  -1.0387357729389783e+00  -8.6987393815312397e-01  -2.2790100551971220e+00  -1.4056739213940415e+00  -1.4266041482507033e+00  -1.4084539863561762e+00  -8.4265605205184180e-01  -6.7304801599728536e-01  -2.1347663518397284e+00  -2.0848111119164683e+00  -1.0217776814065715e+00  -5.9676286497611630e-01  -1.3258694368392487e+00  -1.1481972440446111e+00  -3.2319776043547221e-01  -4.5836405233065941e-01  -1.7345238582838938e+00  -1.2362911230853084e+00  -1.5530799425325874e+00  -3.6432944771930348e-01  -1.9605316006457587e+00  -1.1856938372963115e+00  -1.9286332469048764e+00  -1.8477434028123467e+00  -9.8659497599802271e-01  -7.1559501722987029e-01  -1.5048242148801982e+00  -1.7361470817430555e+00  -1.7045093150237463e+00  -9.9926796217876246e-01  -1.5321747100866523e-01  -1.2516861792490193e+00  -3.3231409768548931e-01  -1.0346949754433635e-01  -7.4120212062633672e-01  -1.0886647980672746e+00  -8.9954823683120855e-01  -5.6522500297279010e-01  -2.0743720582921510e+00  -1.3264387081605973e+00  -8.3301049952743333e-01  -1.1545202479831584e+00  -1.9234521132542620e-01  -1.4754248507251448e+00  -2.0724011453744939e+00  -5.5039255521867891e-01  -1.0081749086831093e+00  -1.0407341565776651e+00  -9.5392161155377553e-01  -1.4313846397583867e+00  -4.1714532373814567e-01  -8.0193007533383209e-01  -9.3578493289002895e-01  -5.2448868682073635e-01  -1.2465842587205092e+00  -1.0850767385361411e+00  -4.3250910010960703e-01  -7.6879371537921914e-01  -6.8341253258742862e-01  -2.1285717702994067e-01  -1.1388910660810554e+00  -2.0907495529274980e