<?xml version="1.0"?>
<VTKFile type="UnstructuredGrid"  version="0.1"  >
<UnstructuredGrid>
<Piece  NumberOfPoints="15681" NumberOfCells="30848">
<Points>
<DataArray  type="Float64"  NumberOfComponents="3"  format="ascii">0 1 0  0 0 0  1 0 0  1 1 0  0.5 0 0  1 0.5 0  0.5 1 0  0 0.5 0  0.5 0.5 0  0 0.25 0  0.25 0 0  0.25 1 0  0 0.75 0  1 0.25 0  0.75 0 0  1 0.75 0  0.75 1 0  0.7083333333333333 0.2916666666666667 0  0.2916666666666666 0.7083333333333334 0  0.375 0.25 0  0.75 0.625 0  0.2569444444444444 0.4652777777777778 0  0.5366379310344828 0.7535919540229885 0  0.1875 0.1875 0  0.8125 0.8125 0  0.869047619047619 0.375 0  0.1450441919191919 0.6052714646464646 0  0.375 0.8690476190476191 0  0.5526960784313725 0.1825980392156862 0  0.8385416666666666 0.1614583333333334 0  0.1614583333333333 0.8385416666666667 0  0.6736111111111112 0.4652777777777778 0  0.1367521367521368 0.3477564102564102 0  0.6570970491253563 0.8648656830417855 0  0.5102479397556124 0.3386260301221938 0  0.3654513888888889 0.5737847222222222 0  0.6929750044954185 0.1362784921584263 0  0.388576102743835 0.411911725237599 0  0.6091269841269842 0.5942460317460317 0  0.875 0.6875 0  0.427278890279516 0.119889445139758 0  0.8544456845238095 0.5213913690476191 0  0.125 0 0  0 0.125 0  1 0.875 0  0.875 1 0  0.1280008648150532 0.4769292340226777 0  0.2695382451711197 0.3321750950221553 0  0.7031567235715964 0.7447810921428012 0  0.625 0 0  0.375 0 0  0.125 1 0  0.875 0 0  0 0.375 0  0 0.625 0  1 0.375 0  0.375 1 0  1 0.125 0  0 0.875 0  0.625 1 0  1 0.625 0  0.2979288363930608 0.1201429454643536 0  0.410919540229885 0.7484605911330049 0  0.5325041980395562 0.878905151526474 0  0.4831670727569156 0.6331060043826487 0  0.1735997378973042 0.7204747378973043 0  0.2534919507575758 0.5772372159090909 0  0.2633928571428572 0.8876488095238095 0  0.8199404761904761 0.2730654761904762 0  0.75830270586982 0.3919383189517417 0  0.5750282248382511 0.4237522353023667 0  0.6008360210023379 0.2794828358598495 0  0.08163442644334186 0.6821295860397322 0  0.08333333333333333 0.1875 0  0.2028380815996574 0.08844602719988583 0  0.2766521142611967 0.2325436572164097 0  0.90625 0.78125 0  0.890625 0.890625 0  0.7545696325008384 0.8973565441669461 0  0.5625 0.08086590340834317 0  0.09077380952380953 0.09077380952380952 0  0.4610923478694773 0.209034015149656 0  0.7542527598351648 0.5248380520595106 0  0.6459235536037465 0.3619913988405765 0  0.7560381768882634 0.20506142233852 0  0.07073252688172042 0.8125 0  0.0924753097241701 0.9078102849914793 0  0.9292674731182795 0.1875 0  0.9075246902758297 0.09218971500852073 0  0.8125 0.07073252688172045 0  0.2400955776842301 0.7869705776842302 0  0.9121050213379069 0.2781978201831695 0  0.7916878157143976 0.7239689078571988 0  0.9345238095238094 0.4375 0  0.4375 0.9345238095238095 0  0.3725616989755203 0.6651895248862173 0  0.06536271996350887 0.5625 0  0.9348362560379583 0.5625 0  0.456646798987055 0.8277247094351965 0  0.1875 0.9355758238725954 0  0.6169761231634859 0.6939779188977889 0  0.6226854751147515 0.7827911461419014 0  0.3305695598137626 0.7901697871282585 0  0.5865305325818898 0.5101085479043448 0  0.6622701297028378 0.2177663989757395 0  0.1354166666666667 0.2591702279202279 0  0 0.3125 0  0.2094429575680048 0.3936361846162499 0  0.836666296419157 0.607917407161686 0  0.6875 1 0  0.214261555450504 0.6492551722020035 0  0 0.4375 0  0.07731537126068377 0.40625 0  0.3427725432967068 0.4879566233699599 0  0.3550792513951871 0.3331953632609953 0  0.4462473953896857 0.2887834789342508 0  0.4747801464819794 0.417386052030127 0  0.8229836475148948 0.4443292349237342 0  0.7322605135514757 0.8199240278289671 0  0.6756431877205955 0.5468989748126787 0  0.1968419507215863 0.5194573482612496 0  0.3285590277777778 0.9345238095238095 0  0.8125 1 0  0.4198917601920009 0.5134893045331258 0  0.5232405503206691 0.2595791787880157 0  1 0.9375 0  0.1987510870015086 0.3025185951894431 0  0.5625 1 0  0.6005390654136388 0.9228110509230952 0  0.6411254848194414 0.07704872765442942 0  0.3357233162523242 0.1855113224530532 0  0.6730653396610877 0.6393887462324165 0  0.310966987234063 0.6240019765311626 0  0.7368737836204349 0.07457755202327881 0  0.6192316414418171 0.1485238406378594 0  0.5432429670607106 0.678552703844006 0  0.4754371679695679 0.7103946803120881 0  0.07501324890749672 0.3043839897335739 0  0.5358146975860403 0.5688321463205916 0  0.3115271739500156 0.3982137365971444 0  0.3625191397122174 0.0767854603650549 0  0.5024029442563831 0.1264128223758444 0  0.4375 0 0  0.4699946908887376 0.06379961173775725 0  0.9375 0.71875 0  0.9272105898044465 0.635671179608893 0  0.9375 1 0  0.6690971819568612 0.9331530898202766 0  0.1073454944778885 0.7499206387638554 0  0.8699082999280406 0.2232403652524313 0  0.5773118091863964 0.3548027349159383 0  0.1354166666666667 0.1428571428571428 0  0.3125 0 0  0.8241684193077341 0.9257452995055244 0  0.4352314948354036 0.3586940847489378 0  0.4351301473778832 0.5819726043539077 0  0.8073232928518163 0.3419398170341962 0  0.7775949246947366 0.1298519409204575 0  0.6875 0 0  0.7413513991851041 0.457933324954483 0  0.939453125 0.841796875 0  0.5630355154606987 0.8171875156478349 0  0.9345238095238095 0.3461466592368577 0  0.9375 0 0  1 0.0625 0  0.0625 1 0  0 0.9375 0  0.06552178593177167 0.4969053669623468 0  0.1424866619031703 0.4130277709291224 0  0.1275287182444726 0.5422946908002588 0  0.2637686595586339 0.06413888464529549 0  0.2524263535491086 0.1697437503243817 0  0.7367218397988525 0.6888573970660841 0  0.0625 0 0  0 0.0625 0  0.8463594539285995 0.7578283617857982 0  0.3128751192101563 0.2851997374369947 0  0.4015281788351144 0.1806421385113692 0  0.1910251795116588 0.4553332197174453 0  0.287797471442006 0.5222621440543902 0  0.3962628745986055 0.8097380085535307 0  0.3505895299554843 0.7304878890838692 0  0.5019151500495276 0.9356042615328103 0  0.9374389419410134 0.4999931039076005 0  0.3125 1 0  0.1875 1 0  1 0.5625 0  0.4375 1 0  1 0.3125 0  1 0.4375 0  0.8125 0 0  1 0.1875 0  0.5625 0 0  0.1875 0 0  0 0.1875 0  0 0.5625 0  0 0.6875 0  0 0.8125 0  1 0.6875 0  1 0.8125 0  0.8021696218581627 0.6612893947866073 0  0.06154922295426143 0.6239401126946708 0  0.9359375 0.9359375 0  0.4666158024849896 0.7691515918155014 0  0.2318201265217025 0.7064974250277525 0  0.1565954253579966 0.6635489312486841 0  0.1598132503680848 0.7787147500325552 0  0.3146529991605639 0.8510876378205265 0  0.1461873209418733 0.05982804528877814 0  0.06109554988524315 0.2446551776247686 0  0.8054950308560754 0.5564226538848541 0  0.470541749491976 0.8853316336952531 0  0.6948472567465137 0.4042308563372457 0  0.8802828472348889 0.4658893256343853 0  0.6788075634946739 0.7974194205806069 0  0.2155048659603867 0.2428201584940968 0  0.8131223143423806 0.2132171049028394 0  0.4330798005432235 0.6671274900735726 0  0.6015279126162613 0.2187368078743274 0  0.8061636571464289 0.8703766630361714 0  0.7008230445061776 0.3478568388444072 0  0.8638466246958771 0.3147095987735538 0  0.204801534004265 0.8789209409594009 0  0.2449006736431132 0.9424182882803838 0  0.7611268409371427 0.2643056884799992 0  0.7552800864046191 0.7678006649959446 0  0.5983639638906616 0.864113435029236 0  0.1956559506814437 0.577281203577426 0  0.3527670268164207 0.1320469097565204 0  0.7530364577483248 0.3262386077083089 0  0.4535919187979363 0.4690107087451527 0  0.8824869791666666 0.8336588541666666 0  0.8814453125 0.9451171875 0  0.5582987942628019 0.622421666543858 0  0.6817532446064828 0.6939001801354731 0  0.3830295138888889 0.9450968952922078 0  0.4140603937012541 0.05211333372716105 0  0.5535864501303013 0.3060591985391672 0  0.6560130086346878 0.2729726562211558 0  0.890203140221684 0.5948314305427268 0  0.7043857725999024 0.593980890020804 0  0.5105843922695152 0.8016828014338627 0  0.05365910753708378 0.7315110031682004 0  0.616904573672261 0.4621186633436136 0  0.5338511646455415 0.387875898899613 0  0.5231769258947843 0.4477682463140762 0  0.650302973237622 0.7370722302085519 0  0.3927483139621257 0.4662414504529014 0  0.8034595960585199 0.4972538342758211 0  0.7738337841682438 0.9496376207663251 0  0.7193737507158268 0.954685447650112 0  0.482525916480686 0.5528257169991676 0  0.2533501157346781 0.2809495420003238 0  0.3118487924482243 0.5702930126570319 0  0.6257598847669529 0.4104163315430518 0  0.1354166666666667 0.1955605158730158 0  0.04166666666666666 0.15625 0  0.3956448985530264 0.6174149462065157 0  0.8102897701818546 0.3938784238208349 0  0.2641154190013625 0.8344469561943118 0  0.642852220770013 0.5068794586563659 0  0.05271458179508221 0.355846947336007 0  0.7021551360070266 0.8921457280225779 0  0.5692125776683765 0.1328512638850284 0  0.5206162811937602 0.04865158770992991 0  0.6001838442201555 0.04540556991297563 0  0.2597716608242787 0.4118346398477178 0  0.4040584599473195 0.3179589136784675 0  0.1480337679295207 0.8941560631483065 0  0.1344356707112281 0.9466251177415842 0  0.7114696411829317 0.4983917389078826 0  0.7585704698442475 0.5751926345944629 0  0.2189131956390871 0.04022068508159698 0  0.2476935455192043 0.1123642267635843 0  0.185995005654517 0.1365524537205238 0  0.6223414373308711 0.643380839165121 0  0.5732602596637543 0.7190051747306219 0  0.268358222364537 0.6586246524467934 0  0.3265879848129173 0.2369791782191225 0  0.1267095595787346 0.7034787238999181 0  0.1115202922226038 0.6421997933884982 0  0.3128688392940203 0.07260997451790079 0  0.550724900485678 0.9253360991633187 0  0.7142608810459105 0.2384904702214873 0  0.7045869185243887 0.1871826897887429 0  0.890625 0.734375 0  0.953125 0.765625 0  0.2111812642821677 0.8286209446459138 0  0.9590293078204457 0.09375 0  0.953431269039847 0.1435719386408004 0  0.04097069217955424 0.90625 0  0.04656873096015299 0.8564280613591996 0  0.1078743037981226 0.8541621766048062 0  0.8921256962018773 0.1458378233951939 0  0.8521576979194619 0.1084496634207678 0  0.8655663982740958 0.05464346096571447 0  0.04005659640905543 0.09375 0  0.1001448316533417 0.0424677624422826
[...]
<PointData  Scalars="f_139523"> 
<DataArray  type="Float64"  Name="f_139523"  format="ascii">9.0482705246601958e-01  9.0482705246601958e-01  9.0482705246601958e-01  9.0482705246601958e-01  9.0482705246601958e-01  2.9048270524660196e+00  2.9048270524660196e+00  9.0482705246601958e-01  1.9304660488857426e+00  9.0482705246601958e-01  9.0482705246601958e-01  1.9048270524660196e+00  9.0482705246601958e-01  1.9048270524660196e+00  9.0482705246601958e-01  1.9048270524660198e+00  1.9048270524660198e+00  1.6611244422349918e+00  1.6610853219719657e+00  1.0988861630913118e+00  2.9109156545359101e+00  1.1996155944329048e+00  2.7553962250378525e+00  9.3319272794557617e-01  2.4438950893001441e+00  2.3146468668374145e+00  1.0156254138589911e+00  2.3144018831248960e+00  1.1106204484192330e+00  1.1944545522982055e+00  1.1946104498443033e+00  2.3184706466967726e+00  9.0300650761995005e-01  2.7664528732469007e+00  1.4641125735952321e+00  1.6799589530879999e+00  1.0289318549242921e+00  1.3949398987113164e+00  2.5773094948465856e+00  2.6598604848491663e+00  9.1217014064570900e-01  2.8103931708302237e+00  9.0482705246601958e-01  9.0482705246601958e-01  1.1977202712794721e+00  1.1977202712794721e+00  9.2818241219655262e-01  1.0845495540790031e+00  2.9195877660807126e+00  9.0482705246601958e-01  9.0482705246601958e-01  1.1977202712794721e+00  9.0482705246601958e-01  9.0482705246601958e-01  9.0482705246601958e-01  2.6119338336525670e+00  2.6119338336525670e+00  1.1977202712794721e+00  9.0482705246601958e-01  2.6119338336525670e+00  2.6119338336525670e+00  8.8543034202298798e-01  2.2842292875198917e+00  2.8388680737953407e+00  2.2744751834322230e+00  1.2010039775427841e+00  1.3241574047683873e+00  1.7682382576220277e+00  1.7508271492937759e+00  2.2225477154414670e+00  1.8907073862220740e+00  1.4372996667318800e+00  9.3853758761360417e-01  8.7524354850527109e-01  8.8645336409429498e-01  1.0105680391782137e+00  2.1459234783833900e+00  1.5752568220850551e+00  2.3247795448392612e+00  9.1829484489268021e-01  8.9337254066577476e-01  1.1055460922896212e+00  2.7237686708594993e+00  1.8290392399484381e+00  1.3646818258205513e+00  9.3169634677625912e-01  1.0280076053645031e+00  1.4084304275529069e+00  1.0280367191032542e+00  9.3133350157451344e-01  1.5537814778674761e+00  1.9076781768628945e+00  2.8238193864854662e+00  2.7211366315015573e+00  2.7212405160451958e+00  1.9167851123263653e+00  9.0649907852611367e-01  2.8679697742493073e+00  2.6267591116091360e+00  1.4242205316721952e+00  2.8303277834554281e+00  2.9257679620962689e+00  1.9981732146830136e+00  2.2346928206614640e+00  1.3122044355876374e+00  8.8128451995788448e-01  9.0482705246601958e-01  1.0589826598752177e+00  2.8937778087380663e+00  2.2875104848311101e+00  1.2868546680402295e+00  9.0482705246601958e-01  8.9472168405799235e-01  1.4336367255830738e+00  1.1943211715302906e+00  1.2407769204327321e+00  1.6105391016046422e+00  2.5761437860979530e+00  2.7215536266547620e+00  2.6127505067645429e+00  1.1236402311711402e+00  2.2318975391875040e+00  1.5221436201009295e+00  1.7159776284603858e+00  1.2730014143243447e+00  9.8094751995473306e-01  9.9550850672692848e-01  2.8287065849773065e+00  2.8180223738227426e+00  9.2312027541759134e-01  9.9397940008720920e-01  2.8361714313431303e+00  1.5861037361443813e+00  9.3394718369396723e-01  1.0349583153110389e+00  2.6086843049200872e+00  2.4542969182440539e+00  8.8464864239082708e-01  2.2679745554454565e+00  1.2191742162793120e+00  8.9050385945256139e-01  9.3440896172324184e-01  9.0482705246601958e-01  9.0148558405429813e-01  2.3452916467374667e+00  2.7211197294378517e+00  9.8094751995473306e-01  2.5891761386908638e+00  1.0030291772480613e+00  1.5111247217040211e+00  1.6504477034838607e+00  8.0135750976023912e-01  9.0482705246601958e-01  1.7771609656246994e+00  1.3742377901307525e+00  1.9507553324474924e+00  2.0854060356433974e+00  1.0489147501583556e+00  9.0482705246601958e-01  2.4635496606985763e+00  1.6060528749467604e+00  2.8851947954183021e+00  2.3263575907593759e+00  9.0482705246601958e-01  9.8094751995473284e-01  9.8094751995473284e-01  9.0482705246601958e-01  9.0129625766293187e-01  9.3159144334692456e-01  9.4796587665957566e-01  8.8824044878207176e-01  9.3935006146814282e-01  2.9292905805129599e+00  9.0482705246601958e-01  9.0482705246601958e-01  2.5105617431170755e+00  1.0835626230538964e+00  1.0166926404557954e+00  1.0672660133854750e+00  1.3442047354014151e+00  2.3519920102528453e+00  1.9688018191676557e+00  2.8632790774786039e+00  2.8649279966240959e+00  2.2875104848311092e+00  1.5221436201009297e+00  2.8287065849773065e+00  2.8287065849773061e+00  2.2875104848311092e+00  2.8287065849773061e+00  9.0482705246601958e-01  1.5221436201009297e+00  9.0482705246601958e-01  9.0482705246601958e-01  9.0482705246601958e-01  9.0482705246601958e-01  9.0482705246601958e-01  9.0482705246601958e-01  2.2875104848311101e+00  1.5221436201009295e+00  2.9063676940410010e+00  9.1410941819453639e-01  1.1678746980663828e+00  2.5619937443617085e+00  1.4142957150758633e+00  1.0905113022300306e+00  1.1790552033230746e+00  1.9845487833178623e+00  8.5340063201036709e-01  8.8956630688996075e-01  2.8709249045736911e+00  2.7326274616868087e+00  2.1232868296047673e+00  2.7052580556063526e+00  2.8922164436496733e+00  9.8201082963403108e-01  1.4541600465296090e+00  2.1726070886762465e+00  1.2518072499012980e+00  2.1474233580843620e+00  1.8914404747647804e+00  1.9949909710670175e+00  1.4303366499431405e+00  1.7698283052088453e+00  1.6281639209509433e+00  2.8064695198285072e+00  2.8519460488267931e+00  1.1652217332235764e+00  8.9830998795876105e-01  1.9031126769823821e+00  1.6984913823395018e+00  1.9231723686684610e+00  1.3798648655187433e+00  2.5055191512783637e+00  2.9161367306334331e+00  2.5401298743946339e+00  9.0239101345684836e-01  1.4456151300392672e+00  1.4994368835500858e+00  2.8565426967122445e+00  2.8018831241741546e+00  2.7668238124945908e+00  9.2341307160904473e-01  2.1491221113071801e+00  1.6639658878906967e+00  1.8318111528372849e+00  2.9221741371049941e+00  1.5224957605974421e+00  2.7314150168343727e+00  1.9867073582705368e+00  2.2769472410334575e+00  2.0355690998333813e+00  1.0286891998982339e+00  1.4925087855913834e+00  1.9733127894255431e+00  8.6457453951242336e-01  8.6769490041597586e-01  1.8945319852235873e+00  2.3420090886995584e+00  1.7129686059695557e+00  2.3892272363536318e+00  8.9959037967574718e-01  2.5779265540349221e+00  9.6710845788582278e-01  9.0472755503164359e-01  9.0562491002855017e-01  1.1479072180073184e+00  1.2389578139503734e+00  1.1536584599715276e+00  1.1636393935148708e+00  2.5413094882660756e+00  2.8512784352557725e+00  8.8767766480273202e-01  8.8514319389840057e-01  8.5947191802369594e-01  2.7410202917533719e+00  2.7820673552765474e+00  1.4862214396560016e+00  1.0460224258890525e+00  1.0092767538065408e+00  9.7086834875022243e-01  8.8554585215415549e-01  2.8722739898216330e+00  1.4503087899038787e+00  1.2435374221538147e+00  2.4415537344725275e+00  2.0179628613730380e+00  1.4488522178365757e+00  1.0498356985673030e+00  1.2088890208443355e+00  9.2088859557863589e-01  8.9236200834732793e-01  9.8406095979612596e-01  1.1368892778377746e+00  9.8687901759078789e-01  9.0351960809266230e-01  8.9444176340383152e-01  8.9866349660329259e-01  9.3458658493996205e-01  1.0188592890834500e+00  2.5719078575555190e+00  9.0113208109114840e-01  9.5341399442510955e-01  1.0647392391211912e+00  9.9890738406383395e-01  1.0995715930829761e+00  1.0247899768487261e+00  2.6928654171500139e+00  1.2840281594672929e+00  8.3324013010050513e-01  1.7401364817546985e+00  9.0932395117466980e-01  9.0482254545770169e-01  2.1291524923943181e+00  1.3179878312246058e+00  1.3561320345474182e+00  1.7298122018474666e+00  1.6218882056690271e+00  2.7896259287431504e+00  1.1457331676659310e+00  2.4528641666134612e+00  1.1201578053334884e+00  1.0013933335599199e+00  2.0938932852146452e+00  1.7993913349588195e+00  1.7513807991379311e+00  8.9183771278476409e-01  2.5696695420226336e+00  2.7611109045405637e+00  9.1284566294454794e-01  2.5923709843444414e+00  8.9275930077033361e-01  9.5731758800082278e-01  1.2174748393932360e+00  2.7813664129047986e+00  2.6728268402944919e+00  2.8750954811554941e+00  1.2487148502883720e+00  2.1558117920787647e+00  2.1750859936550397e+00  2.8489854450923393e+00  9.5318693932191534e-01  8.9700881466985638e-01  2.7847443239561414e+00  2.8759026323415386e+00  1.3322493907481130e+00  8.9999802339624757e-01  1.6929741675333898e+00  2.4503914797636495e+00  9.0312505177747193e-01  2.5541030090666230e+00  2.8969558921105971e+00  2.0234806488123045e+00  2.0555390978820749e+00  1.5175923171998860e+00  9.2752760227040232e-01  8.9312827872601164e-01  8.8555916344162278e-01  9.0295018362017121e-01  8.9727635044029397e-01  2.8877879052162410e+00  2.8468211900515143e+00  2.8893338443904275e+00  9.1843618212855038e-01  9.7653057622882355e-01  2.8682388102730836e+00  2.9195098316677477e+00  1.2319265752423592e+00  1.4663313514849505e+00  2.7636120507814663e+00  2.1343604727268701e+00  8.9890640045686820e-01  1.8721617536152033e+00  2.6736590242934759e+00  1.5352106070659164e+00  8.4579972747657928e-01  1.4940631480194910e+00  2.7856727315365339e+00  1.0899623012803019e+00  1.1308507899155813e+00  1.1332909186840738e+00  1.3032091462804676e+00  1.8598408546966694e+00  2.7338988816755116e+00  2.2821878101514685e+00  2.0773290545048244e+00  2.4603754257779213e+00  1.7240808129553138e+00  9.8185579136114176e-01  1.1636950194215709e+00  1.2179769016704454e+00  1.3337526896812033e+00  2.1769544927670559e+00  9.1144072340995252e-01  1.2724654413067138e+00  2.2287262334487359e+00  2.3936876708205670e+00  2.5919342259044749e+00  8.8662350279278968e-01  8.9210367492438492e-01  2.4367996760168942e+00  2.4587476428666695e+00  2.3265131900445883e+00  2.7165178684028852e+00  2.7013666392419662e+00  1.3595631866033155e+00  1.0390022031748507e+00  9.0482705246601958e-01  1.2445094496986504e+00  1.1663519177163424e+00  9.7799631329013459e-01  2.4549807407838729e+00  9.6082078404845062e-01  1.5823379875911199e+00  1.1185187328599464e+00  1.7097367304498912e+00  8.9966476767529480e-01  1.8325091805570923e+00  1.7312482775964224e+00  2.4474943483532523e+00  1.3589840172928231e+00  1.1701025831887082e+00  2.8889206297677132e+00  2.8069615546409596e+00  1.0308962862562474e+00  1.2177537744872353e+00  1.5057287874479379e+00  2.8849738835493328e+00  2.9099175521541847e+00  2.6429735142171729e+00  2.8550870463819020e+00  9.0482705246601958e-01  1.3029821255987593e+00  2.1267912381651231e+00  1.9851155913552119e+00  2.4243120253310315e+00  9.2894148266155219e-01  1.8200855002166232e+00  8.9715051171896365e-01  8.9131821152030877e-01  1.6757572552240734e+00  9.7705390827998018e-01  9.0678904082017575e-01  1.4419412279768131e+00  9.9992450339800731e-01  1.1431707194346656e+00  1.1413540597020431e+00  2.8510725289079124e+00  1.3455134637673274e+00  9.0910663669260605e-01  9.0482705246601958e-01  2.3389168415210051e+00  9.0298326997970102e-01  2.8766293580006197e+00  1.0173713976308782e+00  1.8587613562486573e+00  2.2241391411270706e+00  2.7362966647685649e+00  9.3481821436110935e-01  1.8813751667553704e+00  8.9112978541410237e-01  1.3589494017969124e+00  9.3639494317112093e-01  1.0630238792597382e+00  2.4050441164028316e+00  9.8988596135310636e-01  9.0482705246601958e-01  8.9527458390757042e-01  1.1779832626398317e+00  9.5482388106199034e-01  1.0446461649478138e+00  9.2188662657442066e-01  9.2705028817876634e-01  1.0046734672359818e+00  2.6168366448072549e+00  2.6262407673705250e+00  2.4468496976127700e+00  8.8532163989226531e-01  1.3492568194464174e+00  1.6064865607554675e+00  2.0615174872756530e+00  1.6323111629510003e+00  1.1424510351568677e+00  2.4603972854856218e+00  1.0802347680121072e+00  9.0532898191026989e-01  1.2949401710313495e+00  9.1358123847479145e-01  1.5631774571629431e+00  1.4430846645151498e+00  1.7414166752421589e+00  2.8659600328233639e+00  1.7983744259373606e+00  2.4603972854856213e+00  2.8110492550572550e+00  2.6312569453932459e+00  2.5160190128388042e+00  9.3446339562000647e-01  2.1524268220614697e+00  1.5887093879360967e+00  2.1477304725328885e+00  1.7437305357683313e+00  9.0482705246601958e-01  1.7097367304498912e+00  1.5553683077438332e+00  2.6972382114166926e+00  8.9468990359403611e-01  9.6231205083463423e-01  1.0685960713550466e+00  2.0789707025029660e+00  1.7244253645474990e+00  9.3105428200927454e-01  2.8391029318902614e+00  1.0338066228032161e+00  2.5951374462226529e+00  9.0482705246601958e-01  1.3532624738586065e+00  1.3814392554125579e+00  1.5847325003491144e+00  8.9326570685611273e-01  9.0440908818161014e-01  1.9711136066102326e+00  2.1148352730928903e+00  1.9534174391262393e+00  1.8878254370019061e+00  2.3093198062371312e+00  2.2562128233315524e+00  2.9295467446399059e+00  1.6360351748358293e+00  9.0004541454603948e-01  2.5982799928477815e+00  1.6131878842097822e+00  8.9690126713059892e-01  1.1527393596122766e+00  9.2275791342425817e-01  2.0999173744821480e+00  2.2410670089978968e+00  1.9445592842057100e+00  2.1769760698550993e+00  1.1899105269109971e+00  2.1337436317933354e+00  2.2353421762243846e+00  2.3842416151691914e+00  9.2404177206278915e-01  2.6009857963142182e+00  9.1522573698859933e-01  9.7842011446286126e-01  1.9998764450013766e+00  2.4182118046061225e+00  2.7123169969922718e+00  1.8262605091081783e+00  9.5385279166625225e-01  2.4571736585437605e+00  1.3777420494780981e+00  1.6443999260764375e+00  1.5723700853439031e+00  1.7516644217224397e+00  1.0878949486538088e+00  9.2517454562412449e-01  2.8318065413894931e+00  2.9146023280793547e+00  9.7144924105365904e-01  2.8970059105406540e+00  2.5772518508835836e+00  8.7286934786967485e-01  8.5076804745740986e-01  8.2267991208647318e-01  2.4134295223394489e+00  9.3960863041047671e-01  2.8666674648115809e+00  9.0482705246601958e-01  1.3683456998649250e+00  1.9517679573779372e+00  9.4418211668868846e-01  1.4408551397414435e+00  9.4481350402554642e-01  2.8678140324199659e+00  1.1069382525555123e+00  2.6175054639878974e+00  2.3736272841016608e+00  1.6038809339088884e+00  9.0737709076258588e-01  1.2488775406561687e+00  2.4954036843972704e+00  2.8289551996081643e+00  2.4698534803390721e+00  2.9266472045350658e+00  1.5404733136628903e+00  1.7097367304498912e+00  8.7195881801517228e-01  2.0624199343784944e+00  9.1021934899336832e-01  1.3015411778050834e+00  2.8955336358140791e+00  9.5856712621336304e-01  1.6912241087684754e+00  1.0618012251484132e+00  2.8852855340494932e+00  2.0539101870575789e+00  9.3716198937840800e-01  8.8066901210596338e-01  8.9263279845268451e-01  8.9788257011831141e-01  2.7684868379870737e+00  2.7362966647685649e+00  2.1867820093977111e+00  1.7899838451495187e+00  9.7955132235874021e-01  2.8519686762932270e+00  8.6846014357613133e-01  2.9297689706665739e+00  2.7900436992776894e+00  9.0482705246601958e-01  1.4802125376282325e+00  2.3324660370426407e+00  1.8619857738304195e+00  1.4081410176152840e+00  1.9038297876968759e+00  2.7050159084265371e+00  1.5118402975017051e+00  2.8080722722336433e+00  2.8739220285740887e+00  9.0482705246601958e-01  9.0482705246601958e-01  2.4433553050974264e+00  9.0482705246601958e-01  1.3822709796963260e+00  8.7427037190077650e-01  1.3492568194464174e+00  9.0482705246601958e-01  1.1111423564179197e+00  1.0684522069068538e+00  1.0410337779541654e+00  1.3031135375146330e+00  9.4429829722583913e-01  8.7490380485484898e-01  1.9309810649730239e+00  1.7097367304498912e+00  8.7722359300643538e-01  8.5855401724533087e-01  8.9444947594427193e-01  2.5930337846676013e+00  9.0796502257951550e-01  9.8160942928760753e-01  1.1327145242202887e+00  2.4983471757523930e+00  2.8463221669348928e+00  2.0116959483234691e+00  2.1506418578750663e+00  2.1284476710333369e+00  1.8125280883276051e+00  2.4528795919875352e+00  9.1873953532371433e-01  2.6987393665034562e+00  1.6123530145517742e+00  2.8829640162420560e+00  2.8899661133838999e+00  9.1810020487950372e-01  1.2265628848747954e+00  8.9540871508195596e-01  2.8534824152283371e+00  2.6818624882776634e+00  9.0482705246601958e-01  1.0733574401634742e+00  2.7362966647685649e+00  1.3492568194464178e+00  9.0482705246601958e-01  9.2404177206278915e-01  2.8856123328692500e+00  9.0482705246601958e-01  2.0999173744821480e+00  2.4603972854856218e+00  9.0482705246601958e-01  9.0482705246601958e-01  2.8856123328692500e+00  2.8856123328692500e+00  2.7362966647685649e+00  9.0482705246601958e-01  9.0482705246601958e-01  9.0482705246601958e-01  9.0482705246601958e-01  9.0482705246601958e-01  9.0482705246601958e-01  9.0482705246601958e-01  1.0733574401634742e+00  9.0482705246601958e-01  9.0482705246601958e-01  1.0733574401634742e+00  9.0482705246601958e-01  9.0482705246601958e-01  9.0482705246601958e-01  9.0482705246601958e-01  2.0999173744821484e+00  2.8856123328692500e+00  1.0733574401634742e+00  9.2404177206278926e-01  9.2404177206278926e-01  9.0482705246601958e-01  9.0482705246601958e-01  2.4603972854856213e+00  2.0999173744821484e+00  1.3492568194464178e+00  1.7689713380782859e+00  2.7910424482364240e+00  2.0082712224071955e+00  2.2566231945105484e+00  1.3264615448192507e+00  2.8850948668296703e+00  1.0011972197532204e+00  9.9884127081009899e-01  9.6369617517355255e-01  2.5463083690466148e+00  8.9073835686827296e-01  8.9631045600653991e-01  1.1256885370280030e+00  9.1010940650596395e-01  9.3091256553326918e-01  9.0074166977106140e-01  9.0439395565862946e-01  8.8761825842036157e-01  8.7883206189455965e-01  2.7079809582114827e+00  2.9286121967064283e+00  2.7653602069477463e+00  1.0278524272337108e+00  2.8517349017712186e+00  9.5181428010707203e-01  1.6071302452280851e+00  9.1501130423319432e-01  2.4135189350886810e+00  2.7167205328898496e+00  1.1696570672643145e+00  2.1972990641779355e+00  1.2128617772709260e+00  1.4211067405033606e+00  1.3757416465930203e+00  1.1653378524683196e+00  2.5972066470722361e+00  1.0449828716834837e+00  1.9479774956358971e+00  2.1555713159351169e+00  1.9284347328317135e+00  1.5940238643225884e+00  2.1831321927286274e+00  1.0868081951798516e+00  2.8988804899606033e+00  2.6165321704530551e+00  2.7355526816619555e+00  1.3954529704477256e+00  1.5217749359574029e+00  2.8208193184095354e+00  2.8234170459212735e+00  2.9082941703521370e+00  1.7960531019926438e+00  8.9975907581278725e-01  2.7184068922508708e+00  1.3088172731570646e+00  1.0528928630320835e+00  1.1987135372850197e+00  2.8535351037137291e+00  1.8686301345073426e+00  2.9167187332924716e+00  1.5899641394959139e+00  1.4811887810275242e+00  1.0299219057582789e+00  2.5830302653005055e+00  1.0205049003567019e+00  1.1842613382546570e+00  1.1386607733428595e+00  2.3192677434602431e+00  1.4993166357098140e+00  2.3034959007943310e+00  2.7117551914628453e+00  2.8224790386389835e+00  1.4679558872217209e+00  1.3361023659739983e+00  1.2636567226375122e+00  2.7169257091541503e+00  2.5791183835916374e+00  1.0727606683692703e+00  2.8140033451244384e+00  2.9193099947775414e+00  2.3155647244955722e+00  2.1425813702149430e+00  1.4066417022435134e+00  9.2492726413422965e-01  2.5049042079375430e+00  2.8325076555726181e+00  8.8328841548774539e-01  1.1293063249476392e+00  2.4560059334341968e+00  2.7641849269363070e+00  1.6201912619902150e+00  9.1812100555639442e-01  9.7463007076280472e-01  1.0041061348755649e+00  9.0918288906769051e-01  2.2482396561796292e+00  2.2632221027035833e+00  1.7896625638657147e+00  1.8402987471783483e+00  1.1268443848163501e+00  1.0761216045898914e+00  2.5518694829953428e+00  2.0987335097785724e+00  1.0142855749580553e+00  1.0469615578021425e+00  2.8197115997410562e+00  2.2078277769223487e+00  1.1475576110013421e+00  1.2419721341719863e+00  1.7961113383461627e+00  1.5830861845463180e+00  1.7790701153515838e+00  9.4651825235637599e-01  1.0202745822900543e+00  1.4479642288731660e+00  1.2449298017509287e+00  2.7805671209514489e+00  1.7166748847754678e+00  9.0368211677195531e-01  1.3232822948755305e+00  1.5555984168922135e+00  8.8254408913260118e-01  2.8581356371019049e+00  9.1137909491676539e-01  1.3329053133276743e+00  1.0240286190955170e+00  1.3076811910858197e+00  1.105127772