<?xml version="1.0"?>
<VTKFile type="UnstructuredGrid"  version="0.1"  >
<UnstructuredGrid>
<Piece  NumberOfPoints="15681" NumberOfCells="30848">
<Points>
<DataArray  type="Float64"  NumberOfComponents="3"  format="ascii">0 1 0  0 0 0  1 0 0  1 1 0  0.5 0 0  1 0.5 0  0.5 1 0  0 0.5 0  0.5 0.5 0  0 0.25 0  0.25 0 0  0.25 1 0  0 0.75 0  1 0.25 0  0.75 0 0  1 0.75 0  0.75 1 0  0.7083333333333333 0.2916666666666667 0  0.2916666666666666 0.7083333333333334 0  0.375 0.25 0  0.75 0.625 0  0.2569444444444444 0.4652777777777778 0  0.5366379310344828 0.7535919540229885 0  0.1875 0.1875 0  0.8125 0.8125 0  0.869047619047619 0.375 0  0.1450441919191919 0.6052714646464646 0  0.375 0.8690476190476191 0  0.5526960784313725 0.1825980392156862 0  0.8385416666666666 0.1614583333333334 0  0.1614583333333333 0.8385416666666667 0  0.6736111111111112 0.4652777777777778 0  0.1367521367521368 0.3477564102564102 0  0.6570970491253563 0.8648656830417855 0  0.5102479397556124 0.3386260301221938 0  0.3654513888888889 0.5737847222222222 0  0.6929750044954185 0.1362784921584263 0  0.388576102743835 0.411911725237599 0  0.6091269841269842 0.5942460317460317 0  0.875 0.6875 0  0.427278890279516 0.119889445139758 0  0.8544456845238095 0.5213913690476191 0  0.125 0 0  0 0.125 0  1 0.875 0  0.875 1 0  0.1280008648150532 0.4769292340226777 0  0.2695382451711197 0.3321750950221553 0  0.7031567235715964 0.7447810921428012 0  0.625 0 0  0.375 0 0  0.125 1 0  0.875 0 0  0 0.375 0  0 0.625 0  1 0.375 0  0.375 1 0  1 0.125 0  0 0.875 0  0.625 1 0  1 0.625 0  0.2979288363930608 0.1201429454643536 0  0.410919540229885 0.7484605911330049 0  0.5325041980395562 0.878905151526474 0  0.4831670727569156 0.6331060043826487 0  0.1735997378973042 0.7204747378973043 0  0.2534919507575758 0.5772372159090909 0  0.2633928571428572 0.8876488095238095 0  0.8199404761904761 0.2730654761904762 0  0.75830270586982 0.3919383189517417 0  0.5750282248382511 0.4237522353023667 0  0.6008360210023379 0.2794828358598495 0  0.08163442644334186 0.6821295860397322 0  0.08333333333333333 0.1875 0  0.2028380815996574 0.08844602719988583 0  0.2766521142611967 0.2325436572164097 0  0.90625 0.78125 0  0.890625 0.890625 0  0.7545696325008384 0.8973565441669461 0  0.5625 0.08086590340834317 0  0.09077380952380953 0.09077380952380952 0  0.4610923478694773 0.209034015149656 0  0.7542527598351648 0.5248380520595106 0  0.6459235536037465 0.3619913988405765 0  0.7560381768882634 0.20506142233852 0  0.07073252688172042 0.8125 0  0.0924753097241701 0.9078102849914793 0  0.9292674731182795 0.1875 0  0.9075246902758297 0.09218971500852073 0  0.8125 0.07073252688172045 0  0.2400955776842301 0.7869705776842302 0  0.9121050213379069 0.2781978201831695 0  0.7916878157143976 0.7239689078571988 0  0.9345238095238094 0.4375 0  0.4375 0.9345238095238095 0  0.3725616989755203 0.6651895248862173 0  0.06536271996350887 0.5625 0  0.9348362560379583 0.5625 0  0.456646798987055 0.8277247094351965 0  0.1875 0.9355758238725954 0  0.6169761231634859 0.6939779188977889 0  0.6226854751147515 0.7827911461419014 0  0.3305695598137626 0.7901697871282585 0  0.5865305325818898 0.5101085479043448 0  0.6622701297028378 0.2177663989757395 0  0.1354166666666667 0.2591702279202279 0  0 0.3125 0  0.2094429575680048 0.3936361846162499 0  0.836666296419157 0.607917407161686 0  0.6875 1 0  0.214261555450504 0.6492551722020035 0  0 0.4375 0  0.07731537126068377 0.40625 0  0.3427725432967068 0.4879566233699599 0  0.3550792513951871 0.3331953632609953 0  0.4462473953896857 0.2887834789342508 0  0.4747801464819794 0.417386052030127 0  0.8229836475148948 0.4443292349237342 0  0.7322605135514757 0.8199240278289671 0  0.6756431877205955 0.5468989748126787 0  0.1968419507215863 0.5194573482612496 0  0.3285590277777778 0.9345238095238095 0  0.8125 1 0  0.4198917601920009 0.5134893045331258 0  0.5232405503206691 0.2595791787880157 0  1 0.9375 0  0.1987510870015086 0.3025185951894431 0  0.5625 1 0  0.6005390654136388 0.9228110509230952 0  0.6411254848194414 0.07704872765442942 0  0.3357233162523242 0.1855113224530532 0  0.6730653396610877 0.6393887462324165 0  0.310966987234063 0.6240019765311626 0  0.7368737836204349 0.07457755202327881 0  0.6192316414418171 0.1485238406378594 0  0.5432429670607106 0.678552703844006 0  0.4754371679695679 0.7103946803120881 0  0.07501324890749672 0.3043839897335739 0  0.5358146975860403 0.5688321463205916 0  0.3115271739500156 0.3982137365971444 0  0.3625191397122174 0.0767854603650549 0  0.5024029442563831 0.1264128223758444 0  0.4375 0 0  0.4699946908887376 0.06379961173775725 0  0.9375 0.71875 0  0.9272105898044465 0.635671179608893 0  0.9375 1 0  0.6690971819568612 0.9331530898202766 0  0.1073454944778885 0.7499206387638554 0  0.8699082999280406 0.2232403652524313 0  0.5773118091863964 0.3548027349159383 0  0.1354166666666667 0.1428571428571428 0  0.3125 0 0  0.8241684193077341 0.9257452995055244 0  0.4352314948354036 0.3586940847489378 0  0.4351301473778832 0.5819726043539077 0  0.8073232928518163 0.3419398170341962 0  0.7775949246947366 0.1298519409204575 0  0.6875 0 0  0.7413513991851041 0.457933324954483 0  0.939453125 0.841796875 0  0.5630355154606987 0.8171875156478349 0  0.9345238095238095 0.3461466592368577 0  0.9375 0 0  1 0.0625 0  0.0625 1 0  0 0.9375 0  0.06552178593177167 0.4969053669623468 0  0.1424866619031703 0.4130277709291224 0  0.1275287182444726 0.5422946908002588 0  0.2637686595586339 0.06413888464529549 0  0.2524263535491086 0.1697437503243817 0  0.7367218397988525 0.6888573970660841 0  0.0625 0 0  0 0.0625 0  0.8463594539285995 0.7578283617857982 0  0.3128751192101563 0.2851997374369947 0  0.4015281788351144 0.1806421385113692 0  0.1910251795116588 0.4553332197174453 0  0.287797471442006 0.5222621440543902 0  0.3962628745986055 0.8097380085535307 0  0.3505895299554843 0.7304878890838692 0  0.5019151500495276 0.9356042615328103 0  0.9374389419410134 0.4999931039076005 0  0.3125 1 0  0.1875 1 0  1 0.5625 0  0.4375 1 0  1 0.3125 0  1 0.4375 0  0.8125 0 0  1 0.1875 0  0.5625 0 0  0.1875 0 0  0 0.1875 0  0 0.5625 0  0 0.6875 0  0 0.8125 0  1 0.6875 0  1 0.8125 0  0.8021696218581627 0.6612893947866073 0  0.06154922295426143 0.6239401126946708 0  0.9359375 0.9359375 0  0.4666158024849896 0.7691515918155014 0  0.2318201265217025 0.7064974250277525 0  0.1565954253579966 0.6635489312486841 0  0.1598132503680848 0.7787147500325552 0  0.3146529991605639 0.8510876378205265 0  0.1461873209418733 0.05982804528877814 0  0.06109554988524315 0.2446551776247686 0  0.8054950308560754 0.5564226538848541 0  0.470541749491976 0.8853316336952531 0  0.6948472567465137 0.4042308563372457 0  0.8802828472348889 0.4658893256343853 0  0.6788075634946739 0.7974194205806069 0  0.2155048659603867 0.2428201584940968 0  0.8131223143423806 0.2132171049028394 0  0.4330798005432235 0.6671274900735726 0  0.6015279126162613 0.2187368078743274 0  0.8061636571464289 0.8703766630361714 0  0.7008230445061776 0.3478568388444072 0  0.8638466246958771 0.3147095987735538 0  0.204801534004265 0.8789209409594009 0  0.2449006736431132 0.9424182882803838 0  0.7611268409371427 0.2643056884799992 0  0.7552800864046191 0.7678006649959446 0  0.5983639638906616 0.864113435029236 0  0.1956559506814437 0.577281203577426 0  0.3527670268164207 0.1320469097565204 0  0.7530364577483248 0.3262386077083089 0  0.4535919187979363 0.4690107087451527 0  0.8824869791666666 0.8336588541666666 0  0.8814453125 0.9451171875 0  0.5582987942628019 0.622421666543858 0  0.6817532446064828 0.6939001801354731 0  0.3830295138888889 0.9450968952922078 0  0.4140603937012541 0.05211333372716105 0  0.5535864501303013 0.3060591985391672 0  0.6560130086346878 0.2729726562211558 0  0.890203140221684 0.5948314305427268 0  0.7043857725999024 0.593980890020804 0  0.5105843922695152 0.8016828014338627 0  0.05365910753708378 0.7315110031682004 0  0.616904573672261 0.4621186633436136 0  0.5338511646455415 0.387875898899613 0  0.5231769258947843 0.4477682463140762 0  0.650302973237622 0.7370722302085519 0  0.3927483139621257 0.4662414504529014 0  0.8034595960585199 0.4972538342758211 0  0.7738337841682438 0.9496376207663251 0  0.7193737507158268 0.954685447650112 0  0.482525916480686 0.5528257169991676 0  0.2533501157346781 0.2809495420003238 0  0.3118487924482243 0.5702930126570319 0  0.6257598847669529 0.4104163315430518 0  0.1354166666666667 0.1955605158730158 0  0.04166666666666666 0.15625 0  0.3956448985530264 0.6174149462065157 0  0.8102897701818546 0.3938784238208349 0  0.2641154190013625 0.8344469561943118 0  0.642852220770013 0.5068794586563659 0  0.05271458179508221 0.355846947336007 0  0.7021551360070266 0.8921457280225779 0  0.5692125776683765 0.1328512638850284 0  0.5206162811937602 0.04865158770992991 0  0.6001838442201555 0.04540556991297563 0  0.2597716608242787 0.4118346398477178 0  0.4040584599473195 0.3179589136784675 0  0.1480337679295207 0.8941560631483065 0  0.1344356707112281 0.9466251177415842 0  0.7114696411829317 0.4983917389078826 0  0.7585704698442475 0.5751926345944629 0  0.2189131956390871 0.04022068508159698 0  0.2476935455192043 0.1123642267635843 0  0.185995005654517 0.1365524537205238 0  0.6223414373308711 0.643380839165121 0  0.5732602596637543 0.7190051747306219 0  0.268358222364537 0.6586246524467934 0  0.3265879848129173 0.2369791782191225 0  0.1267095595787346 0.7034787238999181 0  0.1115202922226038 0.6421997933884982 0  0.3128688392940203 0.07260997451790079 0  0.550724900485678 0.9253360991633187 0  0.7142608810459105 0.2384904702214873 0  0.7045869185243887 0.1871826897887429 0  0.890625 0.734375 0  0.953125 0.765625 0  0.2111812642821677 0.8286209446459138 0  0.9590293078204457 0.09375 0  0.953431269039847 0.1435719386408004 0  0.04097069217955424 0.90625 0  0.04656873096015299 0.8564280613591996 0  0.1078743037981226 0.8541621766048062 0  0.8921256962018773 0.1458378233951939 0  0.8521576979194619 0.1084496634207678 0  0.8655663982740958 0.05464346096571447 0  0.04005659640905543 0.09375 0  0.1001448316533417 0.0424677624422826
[...]
<PointData  Scalars="f_18276"> 
<DataArray  type="Float64"  Name="f_18276"  format="ascii">4.8175367410171410e-01  4.8175367410171410e-01  4.8175367410171410e-01  4.8175367410171410e-01  4.8175367410171410e-01  2.4817536741017143e+00  2.4817536741017143e+00  4.8175367410171410e-01  1.4258020532314248e+00  4.8175367410171410e-01  4.8175367410171410e-01  1.4817536741017141e+00  4.8175367410171410e-01  1.4817536741017141e+00  4.8175367410171410e-01  1.4817536741017143e+00  1.4817536741017143e+00  1.0900527777084839e+00  1.0895313130216855e+00  5.0881659309151428e-01  2.3207300432265825e+00  6.5910857996850536e-01  2.2267197056820138e+00  4.8843937766190326e-01  1.9988758328676708e+00  1.8559184243658182e+00  5.5807493317823742e-01  1.8550505267957518e+00  6.1657253617325869e-01  7.9862233482589207e-01  7.9703522094894996e-01  1.7597333247718410e+00  4.4591320394027206e-01  2.3171201665162018e+00  8.9329240747144167e-01  1.0935969785503006e+00  6.2331123515970599e-01  8.2132133096203641e-01  2.0008331441752181e+00  2.2571185599260293e+00  4.8936633718534250e-01  2.3821033149563995e+00  4.8175367410171410e-01  4.8175367410171410e-01  7.7464689291516675e-01  7.7464689291516675e-01  5.1190748811965403e-01  4.8048642871750086e-01  2.3646489977159391e+00  4.8175367410171410e-01  4.8175367410171410e-01  7.7464689291516653e-01  4.8175367410171410e-01  4.8175367410171410e-01  4.8175367410171410e-01  2.1888604552882613e+00  2.1888604552882613e+00  7.7464689291516653e-01  4.8175367410171410e-01  2.1888604552882618e+00  2.1888604552882618e+00  4.8322242023671275e-01  1.7287104797438191e+00  2.4241986663295561e+00  1.7018160322756337e+00  7.1657542827789666e-01  7.7483607351704420e-01  1.3485117676831642e+00  1.2611133286292888e+00  1.6575503068486375e+00  1.3583599680931631e+00  8.5447978048108131e-01  5.3252254025872792e-01  4.8977383404861596e-01  4.7793197262447534e-01  4.7992691822387601e-01  1.7209988670957896e+00  1.2164265375268990e+00  1.9124809681436377e+00  4.9910829696166320e-01  4.8344670096521153e-01  5.8284655523803708e-01  2.1968431231293128e+00  1.1807284743021356e+00  8.6901617053070057e-01  5.4573971023918599e-01  6.1561666482289179e-01  1.0230386980341026e+00  6.1450738461067345e-01  5.4567280338424984e-01  1.0537104743237484e+00  1.4745626576453064e+00  2.3020417839751302e+00  2.3008386753840182e+00  2.3011331546921152e+00  1.2867682975756956e+00  4.8607123265021451e-01  2.4467879240366206e+00  2.1411075544442313e+00  1.0324996237349662e+00  2.2382521314640451e+00  2.3452203540889420e+00  1.4377421824349144e+00  1.7085056546191375e+00  7.3463992329897787e-01  4.6321126894528852e-01  4.8175367410171410e-01  4.9916239268478130e-01  2.3878350597390434e+00  1.8644371064668044e+00  6.9949625098473434e-01  4.8175367410171410e-01  4.6905318752342751e-01  8.5960669593000516e-01  5.5692722869290134e-01  6.9241330159656256e-01  1.0867180363165161e+00  2.0841407604803446e+00  2.2320572799329539e+00  2.0544763518777787e+00  6.1823243725385735e-01  1.8161119252338918e+00  1.0990702417366240e+00  1.1945238614910063e+00  7.3091415702702911e-01  5.5787414159042759e-01  4.9002573092522189e-01  2.4056332066130008e+00  2.3883604907588203e+00  4.8647589669824615e-01  4.6205201803182894e-01  2.2069130168101418e+00  9.8425648478066285e-01  5.2147335645232318e-01  5.5944253070286831e-01  2.0545880351129413e+00  1.9110429649831544e+00  4.8009621528505175e-01  1.7514412586177810e+00  6.4111365521415464e-01  4.5312365132662219e-01  5.1972631807346958e-01  4.8175367410171410e-01  4.8411711414514602e-01  1.9215581109949931e+00  2.2847126172300625e+00  5.5787414159042759e-01  2.1716180403354670e+00  5.9207704801314698e-01  1.1121581373888811e+00  1.0581863982408171e+00  4.8182941545925595e-01  4.8175367410171410e-01  1.3913627888374902e+00  7.8900409797889870e-01  1.4195684370679194e+00  1.5359210035244804e+00  6.4945669079611135e-01  4.8175367410171410e-01  1.9205661479536869e+00  1.2283374274571961e+00  2.3874599776995873e+00  1.8966215933551758e+00  4.8175367410171410e-01  5.5787414159042736e-01  5.5787414159042736e-01  4.8175367410171410e-01  4.8468318628382639e-01  4.9064179016202353e-01  5.3058300923387880e-01  4.7212320096434379e-01  4.6788531133042854e-01  2.3567820680995615e+00  4.8175367410171410e-01  4.8175367410171410e-01  2.0845453367473614e+00  5.0421177246396509e-01  4.9845309962708756e-01  5.6718371085895514e-01  7.9970599863039782e-01  1.8207325419297580e+00  1.3494579383764589e+00  2.4464065097618897e+00  2.4467580541535674e+00  1.8644371064668039e+00  1.0990702417366243e+00  2.4056332066130008e+00  2.4056332066130008e+00  1.8644371064668039e+00  2.4056332066130008e+00  4.8175367410171410e-01  1.0990702417366243e+00  4.8175367410171410e-01  4.8175367410171410e-01  4.8175367410171410e-01  4.8175367410171410e-01  4.8175367410171410e-01  4.8175367410171410e-01  1.8644371064668044e+00  1.0990702417366240e+00  2.3518783703538890e+00  4.7411544215526624e-01  7.7181423830820284e-01  2.0395517203321645e+00  8.8444044949478007e-01  6.0894883301965241e-01  7.3706670863423529e-01  1.5585677168284622e+00  4.8924779995439371e-01  4.8418553659640184e-01  2.3638842610773247e+00  2.3164443872790019e+00  1.5542852035534906e+00  2.2910824168847941e+00  2.3583898131618772e+00  4.8042607244261543e-01  9.7812357505964098e-01  1.5982520207069253e+00  6.9240400529481050e-01  1.7624210381736176e+00  1.2812945444434425e+00  1.5843982933990557e+00  1.0348406079095185e+00  1.3619723820082488e+00  1.1031177170710103e+00  2.3079085570404541e+00  2.4079811648818592e+00  6.4784261995839632e-01  4.4116369423150870e-01  1.3322320351363115e+00  1.1893976351932412e+00  1.5608148951743888e+00  9.8852195077318428e-01  1.9362925843085494e+00  2.3352855835361748e+00  2.1016430489997235e+00  4.7115543564413026e-01  9.0101914671762562e-01  8.8232155378080535e-01  2.4166124010309922e+00  2.2339200141686599e+00  2.2590224669768411e+00  4.9874295356122750e-01  1.5900875276596766e+00  1.1107384582460855e+00  1.3220148655326514e+00  2.3079616213980003e+00  9.7474236933621672e-01  2.2271055200758267e+00  1.5671546805675480e+00  1.8522477439800218e+00  1.5259236609813591e+00  4.7620593043655490e-01  9.3898411287139472e-01  1.3828794614337974e+00  4.7604332422973233e-01  4.8473515203003698e-01  1.2984371486260216e+00  1.8088133893938245e+00  1.2383430919133653e+00  1.8120211313732724e+00  4.6191565554620301e-01  2.1632525541312773e+00  5.4090233877772742e-01  4.8238296145253667e-01  4.7451994335820114e-01  5.8367114261765707e-01  6.6147471856319240e-01  8.0607868084130307e-01  7.8282066396525607e-01  1.9976111659557922e+00  2.3146591413951212e+00  4.7470743295207912e-01  4.8352639127412950e-01  4.7814427280726085e-01  2.1056127543348730e+00  2.2220385682192401e+00  8.7289823817392986e-01  4.8329980911651543e-01  6.0340925066594986e-01  5.1668871016149931e-01  4.8123221670239741e-01  2.4575813401602979e+00  9.1667870507034310e-01  7.5725477110857498e-01  2.0157823398816830e+00  1.6030689046830069e+00  9.8705480547116553e-01  6.3609347256431559e-01  8.3136350380792101e-01  5.0827727011183765e-01  5.1390648440949305e-01  6.4342989713822230e-01  7.9698066129366474e-01  6.4547506604305560e-01  5.2470057082136512e-01  4.8166733389501309e-01  4.7876864104160272e-01  5.2629918634517658e-01  6.1796573370043217e-01  2.1419962175049605e+00  4.8152320181582997e-01  5.4151268939433561e-01  5.7723881141165700e-01  5.2513829728644912e-01  5.5745801485490010e-01  6.2824077545682511e-01  2.0938401872904491e+00  7.4019255081312929e-01  4.8609939162674831e-01  1.3282895905818071e+00  4.9439730998251247e-01  4.9273263481989016e-01  1.7098478433841438e+00  9.0983020233576017e-01  8.6477504418063011e-01  1.1959551028824484e+00  1.0157396527317872e+00  2.3317980080757805e+00  6.2452085266091140e-01  1.8922576742273434e+00  6.7470059566257534e-01  4.5248802857560094e-01  1.5081524819175371e+00  1.1979439059983492e+00  1.3269255381301837e+00  4.7248266753173485e-01  2.1367110721696552e+00  2.3207511936945320e+00  4.8820914543056448e-01  2.1574200856341994e+00  4.7398698498439618e-01  5.0190495383605971e-01  6.9327996143844728e-01  2.3117836845081916e+00  2.1852350601919870e+00  2.3364193323582585e+00  7.9177616456229838e-01  1.5713674429740667e+00  1.6388872967605161e+00  2.4338252834457403e+00  5.1533383601544680e-01  4.8165906137014991e-01  2.3620417982704911e+00  2.4407990313261219e+00  7.4450044935080406e-01  4.8023824883578803e-01  1.0814954671401180e+00  2.0413256634140620e+00  4.8270348648576328e-01  2.1330338226646233e+00  2.3612107118848700e+00  1.5092950396601570e+00  1.6391893140991867e+00  9.4366489900638484e-01  4.6988707457594642e-01  4.7808571289701168e-01  4.8518042756367485e-01  4.7832031986901380e-01  4.7957475862531640e-01  2.4706707565590702e+00  2.4308630015569648e+00  2.4716118593789456e+00  5.1075771286436678e-01  5.6687246927155965e-01  2.4228570774455078e+00  2.3598533216944122e+00  7.0351638965512708e-01  1.0768435145475919e+00  2.3110226415723631e+00  1.6267761894034782e+00  4.7759469083038697e-01  1.5462188994998805e+00  2.0831186439982656e+00  1.0086256879948299e+00  4.7878492143546786e-01  9.2495001296098567e-01  2.3609582276492205e+00  4.9938064621769707e-01  5.3450805596669460e-01  5.1832844094989861e-01  6.8367640887727654e-01  1.3345546472569372e+00  2.1808771523328216e+00  1.7303536965053872e+00  1.5046114621382918e+00  2.0055690404691799e+00  1.0964609156649403e+00  4.9057231702128129e-01  6.3873661178919761e-01  6.7738828419061226e-01  7.9389291697222253e-01  1.7425395563928592e+00  4.4364200795834247e-01  6.4542743720195717e-01  1.8307215411567335e+00  1.8650259068349402e+00  2.1837944653795063e+00  4.8137563148319018e-01  4.6916262575242956e-01  1.8995439347200147e+00  1.9996283121938869e+00  1.7792747237017970e+00  2.2613894051278982e+00  2.2606749419138414e+00  7.7674512974725463e-01  4.6483572006196372e-01  4.8175367410171410e-01  7.3674742161676299e-01  6.2533118752405381e-01  4.7884159015080163e-01  1.9945419637754451e+00  4.7202058089963200e-01  1.0188762506492537e+00  5.8841017332802648e-01  1.2866633520855857e+00  4.5998997493422711e-01  1.3256014847523458e+00  1.1868428197993131e+00  1.9117298311430839e+00  7.9863433349810375e-01  5.9379649708114590e-01  2.3453957469365276e+00  2.3476876061681051e+00  5.5342604752724456e-01  6.9161020158134479e-01  9.9350662396310674e-01  2.3041989282120139e+00  2.3054899766896528e+00  2.1603514254878693e+00  2.3261429983633972e+00  4.8175367410171410e-01  9.2926298725661582e-01  1.5943876804779937e+00  1.5686745795667256e+00  2.0002334811377422e+00  4.9968727319296463e-01  1.3175779631014175e+00  4.7953678363172991e-01  4.7764432997925693e-01  1.2612335853507688e+00  5.3882897638115757e-01  4.9361551793760738e-01  8.8675986766828241e-01  5.7606992920278932e-01  7.3790989317856237e-01  5.2975523761922094e-01  2.2186250201168463e+00  7.8969437121027775e-01  4.5720212207534916e-01  4.8175367410171410e-01  1.7775922987944828e+00  4.7674720528685666e-01  2.4401365621235267e+00  6.3454568126073085e-01  1.4589151082696870e+00  1.7778001818163638e+00  2.3132232864042592e+00  4.8601757143343938e-01  1.3686140586537516e+00  4.8090801360445107e-01  7.6982976620537980e-01  5.0714590987790953e-01  5.8281947205427254e-01  1.9420958342553372e+00  4.6510310922192455e-01  4.8175367410171410e-01  4.9693206390283889e-01  6.3008787878164241e-01  5.4778670349782221e-01  4.5428175593574888e-01  4.8342711745840056e-01  4.9879373468307758e-01  5.6190271531542391e-01  2.0714228817276061e+00  2.0922776498890414e+00  1.8690352328408035e+00  4.8517744460738027e-01  9.2618344108211181e-01  1.2600329490458424e+00  1.6478589341757379e+00  1.2153778534529591e+00  6.1741708292397512e-01  2.0373239071213165e+00  5.8715026290092465e-01  4.8242235845161041e-01  7.5225905331608889e-01  4.6896615630390731e-01  1.1612306636432983e+00  8.5782270908302694e-01  1.0995622283799222e+00  2.3421483135687744e+00  1.1885593178788463e+00  2.0373239071213161e+00  2.3813762642556409e+00  2.1093012078746831e+00  2.0924844527621431e+00  5.3747034610337707e-01  1.7567948241551457e+00  1.0908968698643178e+00  1.5637076999163080e+00  1.2353911873671277e+00  4.8175367410171410e-01  1.2866633520855857e+00  1.1489544742783733e+00  2.2784798741210532e+00  4.6042886319247389e-01  5.3017508108790135e-01  6.4387001442352743e-01  1.4731507416700749e+00  1.3252670553162280e+00  4.7790508007576327e-01  2.3803552942929400e+00  5.2662881517745230e-01  2.0734509249685740e+00  4.8175367410171410e-01  8.7707586503886670e-01  9.7694717487028615e-01  1.1756780154696087e+00  4.7935904665584300e-01  4.7153131329396469e-01  1.4649186731005956e+00  1.7112291339440930e+00  1.5508187670584090e+00  1.3246355174215012e+00  1.7625364747674008e+00  1.6871146104492105e+00  2.3501806695497489e+00  1.0469780611943602e+00  5.0113495523144158e-01  2.1694200201274070e+00  1.1703605664789845e+00  4.8071794535252887e-01  6.2500383364492162e-01  4.7614050342968278e-01  1.6768439961178423e+00  1.7128348438793612e+00  1.4638174364146326e+00  1.5907099117197587e+00  5.6702303004741073e-01  1.7168254044888618e+00  1.8374394056269003e+00  1.9738229292120606e+00  5.0096839369848367e-01  2.1758526847207902e+00  4.9667925178764322e-01  5.2295985192915917e-01  1.3896111579402188e+00  2.0090127073835280e+00  2.2649930055059264e+00  1.2694718537661942e+00  5.3530406886717763e-01  1.9037803499146853e+00  9.8369088412372474e-01  1.2942347641979397e+00  9.9226174361225172e-01  1.1907875858017349e+00  7.3195535097110609e-01  5.6905553484011995e-01  2.3051143173192736e+00  2.3834580200655755e+00  4.4320200385023995e-01  2.3610786528163734e+00  2.1483885285301296e+00  4.6758744443048600e-01  4.7902362078439298e-01  4.8858832929309665e-01  1.8681790051966789e+00  5.2196564003121826e-01  2.2626177687542777e+00  4.8175367410171410e-01  9.5060207825210163e-01  1.5350481241723639e+00  5.4873934202258079e-01  8.7895295190607581e-01  5.2304563657447878e-01  2.4254471247083211e+00  7.0547233296214218e-01  2.0249557716410367e+00  1.9527466468408925e+00  1.1994276020579298e+00  4.6824817808331481e-01  6.8657656576904880e-01  1.9458024503961411e+00  2.3941585070887559e+00  2.0427177778951320e+00  2.3641188251311807e+00  9.3416605590228863e-01  1.2866633520855859e+00  4.7058589504125220e-01  1.5563217990920628e+00  4.6797712271947467e-01  7.5618809111385676e-01  2.2842030549960555e+00  5.3805094268719145e-01  1.1659925715234762e+00  5.4773566493222270e-01  2.4451087533555880e+00  1.4545559678306761e+00  5.0154759161701457e-01  4.7794383641111982e-01  4.8391336632775683e-01  4.6677237590554882e-01  2.3495555741021810e+00  2.3132232864042592e+00  1.6668258206942064e+00  1.2657263927251583e+00  5.4955388576453956e-01  2.3363332778109429e+00  4.8416879897703480e-01  2.3569155268951687e+00  2.3767076815162191e+00  4.8175367410171410e-01  1.0607471791644545e+00  1.9424205798920897e+00  1.4730829720140317e+00  8.5962039799068923e-01  1.5216372119778729e+00  2.2171698059282017e+00  9.4959532120242029e-01  2.3899572411954257e+00  2.4434984311872081e+00  4.8175367410171410e-01  4.8175367410171410e-01  1.9906081585673188e+00  4.8175367410171410e-01  9.7930098097760554e-01  4.8469564730654846e-01  9.2618344108211181e-01  4.8175367410171410e-01  7.2436358652013677e-01  4.9491644830110754e-01  4.7114272709685590e-01  7.3705139915796403e-01  5.2026124649282612e-01  4.7765890994486349e-01  1.3116593889189645e+00  1.2866633520855859e+00  4.8090913502321769e-01  4.8254979025681483e-01  4.6232886578991567e-01  2.1624529939663439e+00  5.0092424423440018e-01  5.6440861233620943e-01  6.2425800502938500e-01  1.9960880767996256e+00  2.4284085924265648e+00  1.5068194722961441e+00  1.6929457411764337e+00  1.5327771505670020e+00  1.2234894934239766e+00  1.9966923608065135e+00  5.0155580293471824e-01  2.0762057701991639e+00  1.0440173682160654e+00  2.4644946577319029e+00  2.4718686122162263e+00  5.5818674525682377e-01  8.6592776322513076e-01  4.8188064900919941e-01  2.4339967219758565e+00  2.2547643534321882e+00  4.8175367410171410e-01  6.5028406179916887e-01  2.3132232864042597e+00  9.2618344108211226e-01  4.8175367410171410e-01  5.0096839369848367e-01  2.4625389545049448e+00  4.8175367410171410e-01  1.6768439961178423e+00  2.0373239071213165e+00  4.8175367410171410e-01  4.8175367410171410e-01  2.4625389545049448e+00  2.4625389545049448e+00  2.3132232864042597e+00  4.8175367410171410e-01  4.8175367410171410e-01  4.8175367410171410e-01  4.8175367410171410e-01  4.8175367410171410e-01  4.8175367410171410e-01  4.8175367410171410e-01  6.5028406179916887e-01  4.8175367410171410e-01  4.8175367410171410e-01  6.5028406179916887e-01  4.8175367410171410e-01  4.8175367410171410e-01  4.8175367410171410e-01  4.8175367410171410e-01  1.6768439961178427e+00  2.4625389545049448e+00  6.5028406179916887e-01  5.0096839369848378e-01  5.0096839369848378e-01  4.8175367410171410e-01  4.8175367410171410e-01  2.0373239071213161e+00  1.6768439961178427e+00  9.2618344108211226e-01  1.2338532609614443e+00  2.3777690555901390e+00  1.4010079831466369e+00  1.8406392757264358e+00  7.7360877632307867e-01  2.4714936323389773e+00  4.7095704205155325e-01  4.9577513053999661e-01  4.6032877743958245e-01  2.1177603248570667e+00  4.7698355053255770e-01  4.8139478224818905e-01  7.3451513954472725e-01  4.8111524884885026e-01  4.9578697645874259e-01  4.7226348337536755e-01  4.8701612187844379e-01  4.6508344277803559e-01  4.6755211955146675e-01  2.2702055835023174e+00  2.3395845190205944e+00  2.3493543382012123e+00  4.9351617552559152e-01  2.4353860143330985e+00  4.9104893399720306e-01  1.0865339588914664e+00  4.5298872985881189e-01  1.8776184232073820e+00  2.1619949401861631e+00  6.4923245386190231e-01  1.6289034635702406e+00  6.5513907704112173e-01  8.4238275772106885e-01  9.7235013078927512e-01  7.2819563579128987e-01  2.1692047719383245e+00  4.5669558760663687e-01  1.3375839290383198e+00  1.7026364757918149e+00  1.5198210515423707e+00  1.0049464507466632e+00  1.6180354085886111e+00  4.7675024429732082e-01  2.3958865316955968e+00  2.0762325267270647e+00  2.2790890010232387e+00  8.3218375685982104e-01  9.4867784359084584e-01  2.2935304145511384e+00  2.3344897804313174e+00  2.3966732564965585e+00  1.3719291434596179e+00  4.8064524459889912e-01  2.2297409689340748e+00  7.9792873625212069e-01  6.5688064366404197e-01  7.3159539298578824e-01  2.4265027353881830e+00  1.3023450018342799e+00  2.3513413765231972e+00  1.0216681479916436e+00  9.7163237298492811e-01  6.6106844771212603e-01  2.0668292797395527e+00  5.4945424274009269e-01  6.3706972400320505e-01  6.7910312802199924e-01  1.8139941423498676e+00  9.5013460305828279e-01  1.7469998220737712e+00  2.2735436671150739e+00  2.3930206775979563e+00  1.0584154411187712e+00  9.4256829885849469e-01  8.9478746908085260e-01  2.2785896551766491e+00  1.9949834301066600e+00  5.0241873718178420e-01  2.3491839430147827e+00  2.3637033824969507e+00  1.8953723771991431e+00  1.5779410573372790e+00  8.4698007738059400e-01  4.9247479228541152e-01  1.9256500827799901e+00  2.3645987862802125e+00  4.8332014055426831e-01  5.3056820876441624e-01  2.0463659919058084e+00  2.2382126386484842e+00  1.0475176006987643e+00  4.9629893812986803e-01  4.7401994632432481e-01  5.9812408776203896e-01  5.0516455859392029e-01  1.8388299585277281e+00  1.8653452328059963e+00  1.3770961808622215e+00  1.3992747962643757e+00  7.2046896338417987e-01  5.8721895131168877e-01  1.9711685703948130e+00  1.5883437034756938e+00  4.8389193579648732e-01  5.6925988081121304e-01  2.3324634302214537e+00  1.6276560862318488e+00  6.3774677984410977e-01  7.0402029361348040e-01  1.3842410374428396e+00  1.1700185293651779e+00  1.3625603928434120e+00  5.8894596653769993e-01  6.8587861314168663e-01  9.4040335726239654e-01  8.4469309734553377e-01  2.3287479768113561e+00  1.1910557645640167e+00  4.9159494932537218e-01  9.2616508851656487e-01  1.1886984762911057e+00  4.5922768697416683e-01  2.2820747823707754e+00  4.7140773866835922e-01  9.2495406281144465e-01  5.4599693909652969e-01  9.1743811093935690e-01  7.80298745619