<?xml version="1.0"?>
<VTKFile type="UnstructuredGrid"  version="0.1"  >
<UnstructuredGrid>
<Piece  NumberOfPoints="15681" NumberOfCells="30848">
<Points>
<DataArray  type="Float64"  NumberOfComponents="3"  format="ascii">0 1 0  0 0 0  1 0 0  1 1 0  0.5 0 0  1 0.5 0  0.5 1 0  0 0.5 0  0.5 0.5 0  0 0.25 0  0.25 0 0  0.25 1 0  0 0.75 0  1 0.25 0  0.75 0 0  1 0.75 0  0.75 1 0  0.7083333333333333 0.2916666666666667 0  0.2916666666666666 0.7083333333333334 0  0.375 0.25 0  0.75 0.625 0  0.2569444444444444 0.4652777777777778 0  0.5366379310344828 0.7535919540229885 0  0.1875 0.1875 0  0.8125 0.8125 0  0.869047619047619 0.375 0  0.1450441919191919 0.6052714646464646 0  0.375 0.8690476190476191 0  0.5526960784313725 0.1825980392156862 0  0.8385416666666666 0.1614583333333334 0  0.1614583333333333 0.8385416666666667 0  0.6736111111111112 0.4652777777777778 0  0.1367521367521368 0.3477564102564102 0  0.6570970491253563 0.8648656830417855 0  0.5102479397556124 0.3386260301221938 0  0.3654513888888889 0.5737847222222222 0  0.6929750044954185 0.1362784921584263 0  0.388576102743835 0.411911725237599 0  0.6091269841269842 0.5942460317460317 0  0.875 0.6875 0  0.427278890279516 0.119889445139758 0  0.8544456845238095 0.5213913690476191 0  0.125 0 0  0 0.125 0  1 0.875 0  0.875 1 0  0.1280008648150532 0.4769292340226777 0  0.2695382451711197 0.3321750950221553 0  0.7031567235715964 0.7447810921428012 0  0.625 0 0  0.375 0 0  0.125 1 0  0.875 0 0  0 0.375 0  0 0.625 0  1 0.375 0  0.375 1 0  1 0.125 0  0 0.875 0  0.625 1 0  1 0.625 0  0.2979288363930608 0.1201429454643536 0  0.410919540229885 0.7484605911330049 0  0.5325041980395562 0.878905151526474 0  0.4831670727569156 0.6331060043826487 0  0.1735997378973042 0.7204747378973043 0  0.2534919507575758 0.5772372159090909 0  0.2633928571428572 0.8876488095238095 0  0.8199404761904761 0.2730654761904762 0  0.75830270586982 0.3919383189517417 0  0.5750282248382511 0.4237522353023667 0  0.6008360210023379 0.2794828358598495 0  0.08163442644334186 0.6821295860397322 0  0.08333333333333333 0.1875 0  0.2028380815996574 0.08844602719988583 0  0.2766521142611967 0.2325436572164097 0  0.90625 0.78125 0  0.890625 0.890625 0  0.7545696325008384 0.8973565441669461 0  0.5625 0.08086590340834317 0  0.09077380952380953 0.09077380952380952 0  0.4610923478694773 0.209034015149656 0  0.7542527598351648 0.5248380520595106 0  0.6459235536037465 0.3619913988405765 0  0.7560381768882634 0.20506142233852 0  0.07073252688172042 0.8125 0  0.0924753097241701 0.9078102849914793 0  0.9292674731182795 0.1875 0  0.9075246902758297 0.09218971500852073 0  0.8125 0.07073252688172045 0  0.2400955776842301 0.7869705776842302 0  0.9121050213379069 0.2781978201831695 0  0.7916878157143976 0.7239689078571988 0  0.9345238095238094 0.4375 0  0.4375 0.9345238095238095 0  0.3725616989755203 0.6651895248862173 0  0.06536271996350887 0.5625 0  0.9348362560379583 0.5625 0  0.456646798987055 0.8277247094351965 0  0.1875 0.9355758238725954 0  0.6169761231634859 0.6939779188977889 0  0.6226854751147515 0.7827911461419014 0  0.3305695598137626 0.7901697871282585 0  0.5865305325818898 0.5101085479043448 0  0.6622701297028378 0.2177663989757395 0  0.1354166666666667 0.2591702279202279 0  0 0.3125 0  0.2094429575680048 0.3936361846162499 0  0.836666296419157 0.607917407161686 0  0.6875 1 0  0.214261555450504 0.6492551722020035 0  0 0.4375 0  0.07731537126068377 0.40625 0  0.3427725432967068 0.4879566233699599 0  0.3550792513951871 0.3331953632609953 0  0.4462473953896857 0.2887834789342508 0  0.4747801464819794 0.417386052030127 0  0.8229836475148948 0.4443292349237342 0  0.7322605135514757 0.8199240278289671 0  0.6756431877205955 0.5468989748126787 0  0.1968419507215863 0.5194573482612496 0  0.3285590277777778 0.9345238095238095 0  0.8125 1 0  0.4198917601920009 0.5134893045331258 0  0.5232405503206691 0.2595791787880157 0  1 0.9375 0  0.1987510870015086 0.3025185951894431 0  0.5625 1 0  0.6005390654136388 0.9228110509230952 0  0.6411254848194414 0.07704872765442942 0  0.3357233162523242 0.1855113224530532 0  0.6730653396610877 0.6393887462324165 0  0.310966987234063 0.6240019765311626 0  0.7368737836204349 0.07457755202327881 0  0.6192316414418171 0.1485238406378594 0  0.5432429670607106 0.678552703844006 0  0.4754371679695679 0.7103946803120881 0  0.07501324890749672 0.3043839897335739 0  0.5358146975860403 0.5688321463205916 0  0.3115271739500156 0.3982137365971444 0  0.3625191397122174 0.0767854603650549 0  0.5024029442563831 0.1264128223758444 0  0.4375 0 0  0.4699946908887376 0.06379961173775725 0  0.9375 0.71875 0  0.9272105898044465 0.635671179608893 0  0.9375 1 0  0.6690971819568612 0.9331530898202766 0  0.1073454944778885 0.7499206387638554 0  0.8699082999280406 0.2232403652524313 0  0.5773118091863964 0.3548027349159383 0  0.1354166666666667 0.1428571428571428 0  0.3125 0 0  0.8241684193077341 0.9257452995055244 0  0.4352314948354036 0.3586940847489378 0  0.4351301473778832 0.5819726043539077 0  0.8073232928518163 0.3419398170341962 0  0.7775949246947366 0.1298519409204575 0  0.6875 0 0  0.7413513991851041 0.457933324954483 0  0.939453125 0.841796875 0  0.5630355154606987 0.8171875156478349 0  0.9345238095238095 0.3461466592368577 0  0.9375 0 0  1 0.0625 0  0.0625 1 0  0 0.9375 0  0.06552178593177167 0.4969053669623468 0  0.1424866619031703 0.4130277709291224 0  0.1275287182444726 0.5422946908002588 0  0.2637686595586339 0.06413888464529549 0  0.2524263535491086 0.1697437503243817 0  0.7367218397988525 0.6888573970660841 0  0.0625 0 0  0 0.0625 0  0.8463594539285995 0.7578283617857982 0  0.3128751192101563 0.2851997374369947 0  0.4015281788351144 0.1806421385113692 0  0.1910251795116588 0.4553332197174453 0  0.287797471442006 0.5222621440543902 0  0.3962628745986055 0.8097380085535307 0  0.3505895299554843 0.7304878890838692 0  0.5019151500495276 0.9356042615328103 0  0.9374389419410134 0.4999931039076005 0  0.3125 1 0  0.1875 1 0  1 0.5625 0  0.4375 1 0  1 0.3125 0  1 0.4375 0  0.8125 0 0  1 0.1875 0  0.5625 0 0  0.1875 0 0  0 0.1875 0  0 0.5625 0  0 0.6875 0  0 0.8125 0  1 0.6875 0  1 0.8125 0  0.8021696218581627 0.6612893947866073 0  0.06154922295426143 0.6239401126946708 0  0.9359375 0.9359375 0  0.4666158024849896 0.7691515918155014 0  0.2318201265217025 0.7064974250277525 0  0.1565954253579966 0.6635489312486841 0  0.1598132503680848 0.7787147500325552 0  0.3146529991605639 0.8510876378205265 0  0.1461873209418733 0.05982804528877814 0  0.06109554988524315 0.2446551776247686 0  0.8054950308560754 0.5564226538848541 0  0.470541749491976 0.8853316336952531 0  0.6948472567465137 0.4042308563372457 0  0.8802828472348889 0.4658893256343853 0  0.6788075634946739 0.7974194205806069 0  0.2155048659603867 0.2428201584940968 0  0.8131223143423806 0.2132171049028394 0  0.4330798005432235 0.6671274900735726 0  0.6015279126162613 0.2187368078743274 0  0.8061636571464289 0.8703766630361714 0  0.7008230445061776 0.3478568388444072 0  0.8638466246958771 0.3147095987735538 0  0.204801534004265 0.8789209409594009 0  0.2449006736431132 0.9424182882803838 0  0.7611268409371427 0.2643056884799992 0  0.7552800864046191 0.7678006649959446 0  0.5983639638906616 0.864113435029236 0  0.1956559506814437 0.577281203577426 0  0.3527670268164207 0.1320469097565204 0  0.7530364577483248 0.3262386077083089 0  0.4535919187979363 0.4690107087451527 0  0.8824869791666666 0.8336588541666666 0  0.8814453125 0.9451171875 0  0.5582987942628019 0.622421666543858 0  0.6817532446064828 0.6939001801354731 0  0.3830295138888889 0.9450968952922078 0  0.4140603937012541 0.05211333372716105 0  0.5535864501303013 0.3060591985391672 0  0.6560130086346878 0.2729726562211558 0  0.890203140221684 0.5948314305427268 0  0.7043857725999024 0.593980890020804 0  0.5105843922695152 0.8016828014338627 0  0.05365910753708378 0.7315110031682004 0  0.616904573672261 0.4621186633436136 0  0.5338511646455415 0.387875898899613 0  0.5231769258947843 0.4477682463140762 0  0.650302973237622 0.7370722302085519 0  0.3927483139621257 0.4662414504529014 0  0.8034595960585199 0.4972538342758211 0  0.7738337841682438 0.9496376207663251 0  0.7193737507158268 0.954685447650112 0  0.482525916480686 0.5528257169991676 0  0.2533501157346781 0.2809495420003238 0  0.3118487924482243 0.5702930126570319 0  0.6257598847669529 0.4104163315430518 0  0.1354166666666667 0.1955605158730158 0  0.04166666666666666 0.15625 0  0.3956448985530264 0.6174149462065157 0  0.8102897701818546 0.3938784238208349 0  0.2641154190013625 0.8344469561943118 0  0.642852220770013 0.5068794586563659 0  0.05271458179508221 0.355846947336007 0  0.7021551360070266 0.8921457280225779 0  0.5692125776683765 0.1328512638850284 0  0.5206162811937602 0.04865158770992991 0  0.6001838442201555 0.04540556991297563 0  0.2597716608242787 0.4118346398477178 0  0.4040584599473195 0.3179589136784675 0  0.1480337679295207 0.8941560631483065 0  0.1344356707112281 0.9466251177415842 0  0.7114696411829317 0.4983917389078826 0  0.7585704698442475 0.5751926345944629 0  0.2189131956390871 0.04022068508159698 0  0.2476935455192043 0.1123642267635843 0  0.185995005654517 0.1365524537205238 0  0.6223414373308711 0.643380839165121 0  0.5732602596637543 0.7190051747306219 0  0.268358222364537 0.6586246524467934 0  0.3265879848129173 0.2369791782191225 0  0.1267095595787346 0.7034787238999181 0  0.1115202922226038 0.6421997933884982 0  0.3128688392940203 0.07260997451790079 0  0.550724900485678 0.9253360991633187 0  0.7142608810459105 0.2384904702214873 0  0.7045869185243887 0.1871826897887429 0  0.890625 0.734375 0  0.953125 0.765625 0  0.2111812642821677 0.8286209446459138 0  0.9590293078204457 0.09375 0  0.953431269039847 0.1435719386408004 0  0.04097069217955424 0.90625 0  0.04656873096015299 0.8564280613591996 0  0.1078743037981226 0.8541621766048062 0  0.8921256962018773 0.1458378233951939 0  0.8521576979194619 0.1084496634207678 0  0.8655663982740958 0.05464346096571447 0  0.04005659640905543 0.09375 0  0.1001448316533417 0.0424677624422826
[...]
<PointData  Scalars="f_15764"> 
<DataArray  type="Float64"  Name="f_15764"  format="ascii">0.0000000000000000e+00  0.0000000000000000e+00  0.0000000000000000e+00  0.0000000000000000e+00  0.0000000000000000e+00  0.0000000000000000e+00  0.0000000000000000e+00  0.0000000000000000e+00  -1.8985853085376141e+00  0.0000000000000000e+00  0.0000000000000000e+00  0.0000000000000000e+00  0.0000000000000000e+00  0.0000000000000000e+00  0.0000000000000000e+00  0.0000000000000000e+00  0.0000000000000000e+00  -8.2226024060383096e-01  -8.0355891895286180e-01  -1.8773964608355438e+00  2.5725839287968083e-01  -1.8392026423210552e+00  -8.2043985995659083e-02  -9.1537757815272380e-01  1.0239503544837845e+00  4.6693408920677409e-01  -1.9563892312052997e-01  5.0325905438713836e-01  -1.2003070369289868e+00  1.1259036314411763e-01  1.2135972104070712e-01  -1.2421874397433286e+00  -3.5459950364634574e-01  1.0487626470308431e+00  -2.2953543910566880e+00  -1.7834768039732267e+00  6.2947201114208221e-02  -2.3721519339453407e+00  -9.0378053760465626e-01  1.1225858890591320e+00  -6.6066102165299068e-02  8.8681478950985904e-01  0.0000000000000000e+00  0.0000000000000000e+00  0.0000000000000000e+00  0.0000000000000000e+00  -1.3681080141449645e-01  -1.8730984189243751e+00  5.7004196028509779e-01  0.0000000000000000e+00  0.0000000000000000e+00  0.0000000000000000e+00  0.0000000000000000e+00  0.0000000000000000e+00  0.0000000000000000e+00  0.0000000000000000e+00  0.0000000000000000e+00  0.0000000000000000e+00  0.0000000000000000e+00  0.0000000000000000e+00  0.0000000000000000e+00  -5.4571130178268479e-02  -6.7446178144946300e-01  9.0252920916495860e-01  -1.6706215461536404e+00  -4.7586333025576777e-01  -1.7208830861177133e+00  1.0390904040422684e-02  -1.6874949597537536e-01  -3.5074012053864684e-01  -2.1350431172541442e+00  -1.1776621051789473e+00  2.3959568144512330e-01  7.5126670271684140e-02  -3.2287725879405850e-02  -1.9151756067572538e+00  7.5731851174715192e-01  5.9592591821876961e-01  8.8395418769312040e-01  2.2649932423631644e-01  3.1732945693265840e-01  -1.9793069838285045e+00  -4.2968344140845514e-02  -1.2790557154583440e+00  -9.4796005095336744e-01  2.3535677017721152e-01  2.3239188984670911e-01  3.8615754507059181e-02  2.5098389243723784e-01  2.3393632460028502e-01  -8.6632862193450555e-01  1.4418224504663155e-01  1.0037492811168531e+00  4.9087210194175807e-01  5.3985657091224970e-01  -1.1264358171170972e+00  2.1150117869500804e-01  6.9942056406297226e-01  5.8547269557517712e-01  5.6379428021481180e-02  7.8630676592845086e-03  5.9674673366978825e-01  -3.6440530828847534e-01  -1.6658383729141988e+00  -1.6029100954823254e+00  -4.1539807388717975e-01  0.0000000000000000e+00  -1.9487269904661215e+00  9.9894723523093132e-01  0.0000000000000000e+00  -1.5904922572862317e+00  0.0000000000000000e+00  1.2297347566974365e-01  -2.4724412952850860e+00  -2.2962877062646716e+00  -1.4308387761625896e+00  -2.7163219511646806e+00  5.8391812661178610e-01  1.0979271564273130e+00  -8.2388391653857229e-01  -1.6633994217741495e+00  2.1489298307085369e-01  0.0000000000000000e+00  -2.2959856644912215e+00  -1.7054531643899953e+00  0.0000000000000000e+00  -1.5276377214756176e+00  0.0000000000000000e+00  8.0486164099824609e-01  2.2232382528432446e-01  -1.4738474693337569e+00  -2.6514643928584480e-01  -1.5259334463030780e+00  2.4756331475396870e-01  -2.3923570624782622e-01  -8.4835792276003552e-01  -8.3399943425206058e-01  1.1426560581502362e-01  -1.7191495332518476e+00  -2.0526111302702512e+00  1.0962501421888718e-01  -4.0839842604900874e-02  0.0000000000000000e+00  1.5273206057988606e-01  6.5828704730118448e-01  7.8895679941663166e-01  0.0000000000000000e+00  6.8506438055406127e-01  2.2433336925428812e-01  -2.4707111039710722e-01  -1.9755589800845710e+00  2.4359538491238278e-01  0.0000000000000000e+00  6.0392723757038302e-01  -2.1273796993071592e+00  -1.9475354242756366e+00  -2.1563892930206333e-01  1.4883480402950972e-01  0.0000000000000000e+00  -3.7831704310188458e-01  4.7204455678300272e-01  8.1630297685408615e-01  2.6807720662018286e-01  0.0000000000000000e+00  0.0000000000000000e+00  0.0000000000000000e+00  0.0000000000000000e+00  1.8518347637230376e-01  -4.0960036239095993e-01  -6.5986734329750191e-02  8.6147773224533319e-03  -1.0584082857053725e+00  6.0756276160391209e-01  0.0000000000000000e+00  0.0000000000000000e+00  1.0701998079733266e+00  -1.5994127394068283e+00  -1.3005120689566068e+00  -1.5335372160682630e+00  -1.4509555522440898e+00  1.1882160340325576e-01  -7.9568112643846822e-01  6.0735813787410597e-01  5.7169678969377713e-01  0.0000000000000000e+00  0.0000000000000000e+00  0.0000000000000000e+00  0.0000000000000000e+00  0.0000000000000000e+00  0.0000000000000000e+00  0.0000000000000000e+00  0.0000000000000000e+00  0.0000000000000000e+00  0.0000000000000000e+00  0.0000000000000000e+00  0.0000000000000000e+00  0.0000000000000000e+00  0.0000000000000000e+00  0.0000000000000000e+00  0.0000000000000000e+00  8.9473118809286978e-01  2.0200351174758258e-01  2.0026475800885846e-01  -1.5641267160134701e-02  -1.4003214990445474e+00  -3.5443625220325492e-01  -1.2802482443976676e-01  1.9852732061659392e-01  2.3757186873764971e-01  -5.0286546060201387e-02  6.8533355772490467e-01  6.8556089375416807e-01  -1.0123600578531455e+00  7.5322591599495392e-01  9.1693290632044944e-01  -2.0482460121664632e+00  -5.9413924598373324e-01  -1.2412489366512516e+00  -1.8133536263046031e+00  9.5324499165129817e-01  -1.0783349635508848e+00  1.9252356484813068e-01  -1.0716396331353391e-01  9.4473575192920954e-03  -7.4385126779434030e-01  8.3517929982562333e-01  1.0232283933361344e+00  -1.5614434086388629e+00  -2.7011733604887717e-01  -8.3243557879328822e-01  -2.2913265114487000e+00  8.5226564618817280e-01  3.2387416414300613e-01  -1.0455679783793637e+00  3.8294935092532634e-01  3.7125755214853107e-01  1.1075509517141510e-01  -1.6097915566330316e+00  -1.0639019959457183e+00  8.9980319415912680e-01  -2.3852450147894358e-01  5.8890630417644430e-01  2.0608431866577706e-01  -1.5542103737060398e+00  -2.1508625522278071e+00  -2.0393371205854391e+00  4.0338417400383225e-01  -2.3525339778051610e+00  4.5172060749056453e-01  4.4599862537295648e-01  5.0120210871579729e-01  -2.0407795738111822e+00  -1.7510859110350969e+00  -1.7360463859925859e+00  -1.8558847623721348e+00  -2.4727483639077788e-01  1.5876134967723626e-01  -1.5876361736031186e+00  1.6460931527513059e-01  -2.2025396575230957e-01  -1.1284919556844135e+00  9.9868140269230590e-02  9.7318111011328923e-01  -8.1166292727347308e-02  1.5399178359884100e-01  1.5296123371705767e-01  -1.9414367376953143e+00  -2.2882734833339895e+00  2.5948255364134443e-01  1.6293380935692900e-01  -5.5722361742664206e-01  2.4001166994579448e-01  -1.4517553844492777e-02  -2.6181540508919082e-01  -1.5520022023572408e-01  -4.9598765341770656e-01  -1.5393769234078961e-01  -1.1356431493489898e+00  -2.2146997288592782e+00  1.3727432397281605e-01  1.6603681599729578e-01  9.9200324344456386e-02  7.6435036111533683e-01  -1.3523751052411388e+00  -8.2109180511028201e-01  9.5572047724742637e-01  4.4985965818052909e-01  -4.2184954323146151e-01  1.1726171348460665e-01  1.5169465158200024e-01  1.1740361678012913e-01  1.6955349272790524e-01  3.3366210192751872e-01  2.6180857626050180e-01  3.2942705798326760e-01  1.9231071293443672e-01  1.7612769369436804e-01  1.9214727857992231e-01  9.7124796919483225e-02  1.1122795746632977e-01  5.6071548324227094e-01  1.1715296040063164e-01  2.6166263752019553e-01  -1.1305894504133016e+00  -7.5705121332980341e-01  -2.2917185185622269e+00  2.7623800142008031e-01  -6.5311693768071744e-01  -1.7747451117535287e+00  3.1000577549966024e-01  -7.7457906510613400e-03  1.4965844856450930e-01  1.2924296485317802e-01  1.9840487548978322e-01  2.5276369476310129e-01  -8.8200691147436328e-01  -5.0016526782819182e-01  -1.7389444712338797e+00  1.0603776460636787e+00  -6.4179140793152301e-01  -1.2403515167127763e+00  -1.0603490840124105e-01  -1.4630010932335251e+00  -8.5503393149498852e-01  -1.2267678724978335e+00  -2.0762133855359131e-04  6.3123333514349053e-02  5.4661602173352375e-01  8.6389445051514691e-01  1.7427186843284462e-01  3.2919137665445536e-01  6.1674305541583145e-02  1.9387386201986248e-01  -1.9367660809589895e+00  1.1212829230178278e+00  9.6764835912034108e-01  3.0725366237679824e-01  -1.6493238988207398e-01  -2.9293894933254255e-01  1.7355231542126856e-01  3.0483089036986544e-01  1.1856838441440354e-01  1.0277298440398831e-01  3.5637465443691119e-01  8.3078285881471059e-01  -2.4341471075441241e+00  1.2840418803910805e-01  -1.4000845678441998e+00  1.0696921012491727e+00  1.3473200364552143e-01  3.7263733814133260e-01  1.0293095144837745e+00  -1.9302204741052360e+00  1.5728885498973760e-01  -2.4038123007772456e+00  -1.0195996698797143e+00  -2.1453444985069905e-01  -6.9526650189680198e-02  1.2068587302650302e-01  9.6695222074549711e-02  3.4807255296502976e-01  3.1669442819433008e-01  3.6034993657993364e-01  4.9015062300457164e-02  4.3430594205212537e-02  1.0455728638496804e+00  7.8081819103483951e-01  -1.9705168582493753e+00  2.3414497596867759e-01  1.1186293499060453e+00  -2.0041703062464657e+00  1.1092958848282378e-01  8.8658056489107862e-01  -7.6192719078601256e-01  -2.3847356837888958e+00  2.5757288953658281e-01  -2.1977328521395125e+00  3.8140009032807060e-01  -1.9462279092300474e+00  -2.1092603182360303e+00  -1.6343559077759524e+00  -1.9528632946982944e+00  -2.7005360291272701e-01  -1.6409353127523618e-01  -8.2628307336789486e-01  -1.5115958831111831e+00  4.6381381786631420e-01  -1.6364123210787624e+00  -1.3041928537192187e+00  -2.0708674542019363e+00  -1.8645131924441807e+00  -1.4970536318933592e+00  2.5453098537132868e-01  8.1021363598754573e-02  -2.0791083373297705e+00  9.6054370015864798e-01  -1.4318424049551715e+00  8.1501745624152233e-01  2.6654439652842671e-02  1.1236275758067867e-01  -1.2076660544688568e-01  5.0311959011866414e-01  -1.2981437853842259e+00  6.7864586136175964e-01  5.4086819651772078e-01  -1.6545840121080053e+00  -2.2395892244405751e+00  0.0000000000000000e+00  -1.0159379914586606e+00  -1.1024988456546498e+00  -1.9650014372876885e+00  4.5644236363429258e-01  -1.2136918097375853e+00  -1.8731552158545819e+00  -2.1393034227520267e+00  0.0000000000000000e+00  -3.3261076700665922e-02  -2.0290908205386153e+00  -2.1517481305176456e+00  -1.6580278854219008e-02  -2.4675311777968738e+00  -1.7073521446344107e+00  7.4173583534308285e-01  9.7827535070712690e-01  -9.0923777758294755e-01  -2.0504772792276120e+00  -1.2178375080707233e+00  2.4394722480098385e-01  2.2056128973825675e-01  9.4510191744079008e-01  8.5341959742972096e-01  0.0000000000000000e+00  5.3771961810603730e-02  -1.9834119003328887e+00  2.5315842135184996e-01  1.5210034210338538e-01  1.6954303252271472e-01  -1.6543164095825880e-01  1.5472527790763549e-01  8.4618927930598831e-02  -9.5323981010399239e-02  1.6751315620866788e-01  1.6932375166061178e-01  -2.4486431746364254e+00  2.4478762693262460e-01  1.3808433901719852e-01  -1.4883819011602728e+00  -8.9564153436941379e-02  -1.3658241949399872e+00  6.9397043171220613e-02  0.0000000000000000e+00  -1.3088769884586748e+00  1.5158025448928847e-01  9.1493029546587901e-01  2.8247738397565564e-01  5.2049883415783460e-01  2.9721239793554821e-01  0.0000000000000000e+00  -6.1890683283653392e-01  -1.9504571941427202e+00  7.6564414829100605e-02  -1.7451189865566177e+00  1.4362676293811466e-01  -8.2271003179563706e-01  4.1408948109642285e-01  -9.2723999313048822e-01  0.0000000000000000e+00  1.4104301606405045e-01  -1.1671991046232564e+00  2.3874717159644959e-01  -2.0705170238723518e+00  -5.5752389653282486e-01  8.1928774485430969e-02  -5.1091388791834247e-01  -5.2955573439280468e-01  -2.1066808353816674e-01  -1.0817983879424136e+00  1.0149374910883718e-01  0.0000000000000000e+00  6.0006176999033245e-01  6.9957844645105449e-01  -1.1797859226889387e-01  -2.2098908400668931e+00  0.0000000000000000e+00  -7.6252416430065084e-01  1.5956714232537325e-01  -1.6103017661367234e+00  -8.2802443449052621e-01  -2.9852285376177395e-01  -1.1560777224600145e+00  -1.5270631785620035e+00  1.0225172290068496e+00  -1.3350979432006298e+00  0.0000000000000000e+00  7.2836054038350728e-01  -2.1904483714826395e-02  1.0707791965539339e+00  2.3066245553698742e-01  1.0009381664115788e+00  -7.1065324691028176e-01  -1.1945147341387365e+00  -2.2134268733826752e+00  0.0000000000000000e+00  0.0000000000000000e+00  1.2789752960566024e-02  2.3978797125274151e-01  1.2166173155300808e-01  2.6327758843481586e-01  3.5389064036166443e-02  -5.9801389444990705e-01  3.5142233044602672e-01  -3.9059675598832727e-01  7.5735453182303913e-01  -1.4672983727334268e+00  2.9350867697097760e-01  0.0000000000000000e+00  -4.9922993302360608e-01  7.2680298278396824e-02  2.5497758956906702e-02  1.2591590724784293e-01  -4.4338039423978445e-02  -2.3583341810657110e+00  2.9444065173450001e-01  2.5324503384973224e-01  -7.7042853925880039e-01  -7.4251519315463488e-01  -6.8473313081814224e-01  6.2951896464019608e-01  -1.0720108872573142e+00  1.3400036430699144e-01  1.1187082555569379e+00  -3.7382167573722608e-01  1.1000305393445561e-01  -2.0007949951381589e+00  -5.5159079607304518e-01  0.0000000000000000e+00  2.7261834008788155e-01  6.2554832748298775e-02  -1.3905251995167245e-01  -2.1080082263816902e+00  3.0493771779225193e-01  7.3778418193975859e-01  4.2087266598942430e-01  0.0000000000000000e+00  6.9794005468239861e-01  1.3421425491458785e-04  -5.7407136706437079e-01  -1.3047650674424824e+00  4.1893139620922182e-01  9.9052244961585778e-01  -2.1024010893851388e+00  1.8306474552352542e-01  -9.3042664735129088e-01  2.1541797603443516e-01  6.1579372138579924e-01  -2.1797862476670686e+00  -1.8030884903490705e+00  2.4719140364625808e-01  2.5660541823707678e-01  4.5278275070812030e-01  7.2770953389879867e-01  -8.3737992855898125e-01  8.5195557251184839e-01  4.9454299556265552e-01  -1.5824573381092322e-01  1.8828501294372280e-01  3.5737121554249190e-01  -3.7899053291575197e-01  3.9737911658462882e-02  -6.8357694769507094e-02  0.0000000000000000e+00  -1.9792002703605668e-01  7.8116065374533306e-02  1.2173069621614799e-01  -1.4073792936068179e+00  -3.0180944849075042e-01  1.0347003941599222e+00  1.1280026330962246e-01  -1.0076257246611970e+00  8.1073668623688322e-01  2.6800598757924432e-01  -1.2360300963029829e-02  -1.7626530104319351e+00  -8.0822169863170434e-01  8.1123980744956681e-01  1.9981143233653706e-01  6.2824904264325687e-01  -1.2726914569794663e+00  0.0000000000000000e+00  -2.8082976757148082e-01  -1.9791658068443407e+00  2.4251403273147048e-02  -1.6431519930628038e+00  1.8611349116156498e-01  -2.1490320330714716e-01  -2.3613783438381422e+00  -1.7299163641364912e+00  9.5010989149220537e-01  -6.5120880015581017e-01  1.6563171050786563e-01  -8.4666344690810427e-02  -4.5180664732984571e-03  5.4923560410019293e-02  2.6472122816996180e-01  0.0000000000000000e+00  -1.6826826503945780e+00  -2.3771187871302755e+00  -1.6041462792389241e-01  1.0360029761219665e+00  2.5064365638283737e-01  4.6008999409496198e-01  6.3420516750753797e-01  0.0000000000000000e+00  -4.1885821223050096e-02  9.6953300404659148e-01  6.8699782087435080e-01  -2.0439720774340411e+00  8.0506337659895810e-01  1.1069210525295063e+00  -1.7182210597545022e+00  5.2086225328204006e-01  7.5387747422229134e-01  0.0000000000000000e+00  0.0000000000000000e+00  1.0112208506181062e+00  0.0000000000000000e+00  3.8054054918663183e-01  2.1991296971089783e-01  0.0000000000000000e+00  0.0000000000000000e+00  1.6679396888247558e-01  -1.4425255263705412e+00  -1.5595846549651176e+00  -2.3019848362064077e+00  1.1184024177694311e-01  -5.0249777348128355e-01  -1.0765393009826278e+00  0.0000000000000000e+00  1.5000190297952151e-01  2.9346815441011520e-01  1.5808530099289164e-01  7.1936756771387977e-01  9.8155316995411412e-02  1.5383614404910675e-01  -1.7355285649958632e+00  2.8995780917257225e-01  9.5755346749595649e-01  -2.5889545575464447e-02  2.4544828733678375e-01  -5.4830354191506248e-01  -9.3440758039876315e-01  1.0321705785059452e+00  1.8923707089681063e-01  -6.6339646335688229e-01  -7.8582427468496385e-01  5.9856691928177796e-01  3.3646040353007289e-01  2.6614212658528758e-01  1.8934280546011448e-01  1.2398913148547643e-01  3.8626734343490793e-01  3.8458118268226577e-01  0.0000000000000000e+00  0.0000000000000000e+00  0.0000000000000000e+00  0.0000000000000000e+00  0.0000000000000000e+00  0.0000000000000000e+00  0.0000000000000000e+00  0.0000000000000000e+00  0.0000000000000000e+00  0.0000000000000000e+00  0.0000000000000000e+00  0.0000000000000000e+00  0.0000000000000000e+00  0.0000000000000000e+00  0.0000000000000000e+00  0.0000000000000000e+00  0.0000000000000000e+00  0.0000000000000000e+00  0.0000000000000000e+00  0.0000000000000000e+00  0.0000000000000000e+00  0.0000000000000000e+00  0.0000000000000000e+00  0.0000000000000000e+00  0.0000000000000000e+00  0.0000000000000000e+00  0.0000000000000000e+00  0.0000000000000000e+00  0.0000000000000000e+00  0.0000000000000000e+00  0.0000000000000000e+00  0.0000000000000000e+00  0.0000000000000000e+00  0.0000000000000000e+00  0.0000000000000000e+00  0.0000000000000000e+00  0.0000000000000000e+00  0.0000000000000000e+00  0.0000000000000000e+00  0.0000000000000000e+00  -5.2053338204442945e-01  8.9027892458281455e-01  -1.4311907698655761e+00  1.2532561941752346e-01  -1.7958176960225396e+00  3.7511060229500559e-01  -1.8628351761545097e+00  -2.1761752433017336e+00  -1.7300718201787446e+00  9.8042093364800953e-01  8.9760460019115390e-02  -1.1354605503242798e-02  1.4572900282196397e-01  1.8297801099866437e-01  2.3734123347548039e-01  1.1789307979454368e-01  1.7012903110469441e-01  6.0295657716879947e-02  -5.2540038529693911e-02  6.8140654641441734e-01  5.3035575299517046e-01  8.4642579532681284e-01  -1.9734109456798563e+00  3.8871791117543292e-01  2.3605136458282819e-01  -2.5533128838975978e+00  -2.4319609047873475e-01  -1.3518931379178276e+00  -3.8011395764871775e-01  -1.5915453711483496e+00  1.4335434259484310e-02  -1.6820800369644282e+00  -2.1328877136071274e+00  8.2929914461374793e-02  -1.2202000556832296e-01  5.3007816934911833e-01  -1.9987699217150265e+00  -9.4478684053438078e-01  1.9041522763395208e-01  2.2709545488378455e-01  -1.9393066102866956e+00  -1.2095075685969088e+00  -1.9535712800116503e+00  9.5542829262351225e-01  -6.2640600667976665e-01  9.7897014641099012e-01  -1.5903363096760736e+00  -1.0068050542481661e+00  3.0199336041827468e-01  7.2148097330720762e-01  7.3135190292803831e-01  7.8262471745930581e-02  1.2300949434814606e-01  5.6749405291218979e-01  -1.1081143626643801e+00  1.4070439270495572e-01  -3.2601561989728661e-01  6.6393537399519609e-01  -1.9406577256579407e+00  8.8361885286207642e-01  -8.3284398294075590e-01  -1.2406015367673420e+00  3.1877046479987253e-01  3.4813732346011039e-01  -1.4947947848633153e-01  -9.6818611419007550e-01  -3.3746935198020422e-01  3.8442606613723279e-01  -2.1878379283017231e+00  -2.6532099468834808e-01  6.9010043087501705e-01  6.6899859710834220e-01  -2.4011110587860367e-02  -8.2221908383404985e-02  1.2254860297141587e-01  8.5055235455785749e-01  -1.1061910486393993e+00  -2.0681627739913910e+00  9.6559206130309538e-01  8.1651540547775669e-01  1.6582205749361684e-01  -1.1391209571971608e+00  -1.3119064232627138e+00  1.3264032416442600e-01  -1.0967171451554347e+00  1.0485527577443212e+00  -5.7798228158587917e-01  -2.0311736922714738e+00  7.3181491177251856e-01  2.8612163068252555e-01  -1.9679558012251728e+00  1.6323143523466663e-01  -1.1660473012981942e+00  2.3737810090208966e-01  1.5291939091949538e-01  1.0309747299475547e+00  9.3205267755198962e-01  3.0104843222606359e-01  1.3221304242661489e-01  9.2082212522464527e-02  -7.7678029105601543e-01  -8.5856581335189841e-01  -1.6692422822016659e+00  -1.8782295039791819e+00  -8.6194030370480768e-01  9.8094301052052379e-01  -1.1918115737037471e+00  -1.6294378789012116e+00  -2.0083049480221522e+00  1.7876906806750293e-02  -5.2798686152759240e-02  -7.8032504212282462e-03  2.8590251987585202e-01  2.92600487692637