<?xml version="1.0"?>
<VTKFile type="UnstructuredGrid"  version="0.1"  >
<UnstructuredGrid>
<Piece  NumberOfPoints="441" NumberOfCells="800">
<Points>
<DataArray  type="Float64"  NumberOfComponents="3"  format="ascii">0 0 0  0.05 0 0  0.1 0 0  0.15 0 0  0.2 0 0  0.25 0 0  0.3 0 0  0.35 0 0  0.4 0 0  0.45 0 0  0.5 0 0  0.55 0 0  0.6 0 0  0.65 0 0  0.7 0 0  0.75 0 0  0.8 0 0  0.85 0 0  0.9 0 0  0.95 0 0  1 0 0  0 0.05 0  0.05 0.05 0  0.1 0.05 0  0.15 0.05 0  0.2 0.05 0  0.25 0.05 0  0.3 0.05 0  0.35 0.05 0  0.4 0.05 0  0.45 0.05 0  0.5 0.05 0  0.55 0.05 0  0.6 0.05 0  0.65 0.05 0  0.7 0.05 0  0.75 0.05 0  0.8 0.05 0  0.85 0.05 0  0.9 0.05 0  0.95 0.05 0  1 0.05 0  0 0.1 0  0.05 0.1 0  0.1 0.1 0  0.15 0.1 0  0.2 0.1 0  0.25 0.1 0  0.3 0.1 0  0.35 0.1 0  0.4 0.1 0  0.45 0.1 0  0.5 0.1 0  0.55 0.1 0  0.6 0.1 0  0.65 0.1 0  0.7 0.1 0  0.75 0.1 0  0.8 0.1 0  0.85 0.1 0  0.9 0.1 0  0.95 0.1 0  1 0.1 0  0 0.15 0  0.05 0.15 0  0.1 0.15 0  0.15 0.15 0  0.2 0.15 0  0.25 0.15 0  0.3 0.15 0  0.35 0.15 0  0.4 0.15 0  0.45 0.15 0  0.5 0.15 0  0.55 0.15 0  0.6 0.15 0  0.65 0.15 0  0.7 0.15 0  0.75 0.15 0  0.8 0.15 0  0.85 0.15 0  0.9 0.15 0  0.95 0.15 0  1 0.15 0  0 0.2 0  0.05 0.2 0  0.1 0.2 0  0.15 0.2 0  0.2 0.2 0  0.25 0.2 0  0.3 0.2 0  0.35 0.2 0  0.4 0.2 0  0.45 0.2 0  0.5 0.2 0  0.55 0.2 0  0.6 0.2 0  0.65 0.2 0  0.7 0.2 0  0.75 0.2 0  0.8 0.2 0  0.85 0.2 0  0.9 0.2 0  0.95 0.2 0  1 0.2 0  0 0.25 0  0.05 0.25 0  0.1 0.25 0  0.15 0.25 0  0.2 0.25 0  0.25 0.25 0  0.3 0.25 0  0.35 0.25 0  0.4 0.25 0  0.45 0.25 0  0.5 0.25 0  0.55 0.25 0  0.6 0.25 0  0.65 0.25 0  0.7 0.25 0  0.75 0.25 0  0.8 0.25 0  0.85 0.25 0  0.9 0.25 0  0.95 0.25 0  1 0.25 0  0 0.3 0  0.05 0.3 0  0.1 0.3 0  0.15 0.3 0  0.2 0.3 0  0.25 0.3 0  0.3 0.3 0  0.35 0.3 0  0.4 0.3 0  0.45 0.3 0  0.5 0.3 0  0.55 0.3 0  0.6 0.3 0  0.65 0.3 0  0.7 0.3 0  0.75 0.3 0  0.8 0.3 0  0.85 0.3 0  0.9 0.3 0  0.95 0.3 0  1 0.3 0  0 0.35 0  0.05 0.35 0  0.1 0.35 0  0.15 0.35 0  0.2 0.35 0  0.25 0.35 0  0.3 0.35 0  0.35 0.35 0  0.4 0.35 0  0.45 0.35 0  0.5 0.35 0  0.55 0.35 0  0.6 0.35 0  0.65 0.35 0  0.7 0.35 0  0.75 0.35 0  0.8 0.35 0  0.85 0.35 0  0.9 0.35 0  0.95 0.35 0  1 0.35 0  0 0.4 0  0.05 0.4 0  0.1 0.4 0  0.15 0.4 0  0.2 0.4 0  0.25 0.4 0  0.3 0.4 0  0.35 0.4 0  0.4 0.4 0  0.45 0.4 0  0.5 0.4 0  0.55 0.4 0  0.6 0.4 0  0.65 0.4 0  0.7 0.4 0  0.75 0.4 0  0.8 0.4 0  0.85 0.4 0  0.9 0.4 0  0.95 0.4 0  1 0.4 0  0 0.45 0  0.05 0.45 0  0.1 0.45 0  0.15 0.45 0  0.2 0.45 0  0.25 0.45 0  0.3 0.45 0  0.35 0.45 0  0.4 0.45 0  0.45 0.45 0  0.5 0.45 0  0.55 0.45 0  0.6 0.45 0  0.65 0.45 0  0.7 0.45 0  0.75 0.45 0  0.8 0.45 0  0.85 0.45 0  0.9 0.45 0  0.95 0.45 0  1 0.45 0  0 0.5 0  0.05 0.5 0  0.1 0.5 0  0.15 0.5 0  0.2 0.5 0  0.25 0.5 0  0.3 0.5 0  0.35 0.5 0  0.4 0.5 0  0.45 0.5 0  0.5 0.5 0  0.55 0.5 0  0.6 0.5 0  0.65 0.5 0  0.7 0.5 0  0.75 0.5 0  0.8 0.5 0  0.85 0.5 0  0.9 0.5 0  0.95 0.5 0  1 0.5 0  0 0.55 0  0.05 0.55 0  0.1 0.55 0  0.15 0.55 0  0.2 0.55 0  0.25 0.55 0  0.3 0.55 0  0.35 0.55 0  0.4 0.55 0  0.45 0.55 0  0.5 0.55 0  0.55 0.55 0  0.6 0.55 0  0.65 0.55 0  0.7 0.55 0  0.75 0.55 0  0.8 0.55 0  0.85 0.55 0  0.9 0.55 0  0.95 0.55 0  1 0.55 0  0 0.6 0  0.05 0.6 0  0.1 0.6 0  0.15 0.6 0  0.2 0.6 0  0.25 0.6 0  0.3 0.6 0  0.35 0.6 0  0.4 0.6 0  0.45 0.6 0  0.5 0.6 0  0.55 0.6 0  0.6 0.6 0  0.65 0.6 0  0.7 0.6 0  0.75 0.6 0  0.8 0.6 0  0.85 0.6 0  0.9 0.6 0  0.95 0.6 0  1 0.6 0  0 0.65 0  0.05 0.65 0  0.1 0.65 0  0.15 0.65 0  0.2 0.65 0  0.25 0.65 0  0.3 0.65 0  0.35 0.65 0  0.4 0.65 0  0.45 0.65 0  0.5 0.65 0  0.55 0.65 0  0.6 0.65 0  0.65 0.65 0  0.7 0.65 0  0.75 0.65 0  0.8 0.65 0  0.85 0.65 0  0.9 0.65 0  0.95 0.65 0  1 0.65 0  0 0.7 0  0.05 0.7 0  0.1 0.7 0  0.15 0.7 0  0.2 0.7 0  0.25 0.7 0  0.3 0.7 0  0.35 0.7 0  0.4 0.7 0  0.45 0.7 0  0.5 0.7 0  0.55 0.7 0  0.6 0.7 0  0.65 0.7 0  0.7 0.7 0  0.75 0.7 0  0.8 0.7 0  0.85 0.7 0  0.9 0.7 0  0.95 0.7 0  1 0.7 0  0 0.75 0  0.05 0.75 0  0.1 0.75 0  0.15 0.75 0  0.2 0.75 0  0.25 0.75 0  0.3 0.75 0  0.35 0.75 0  0.4 0.75 0  0.45 0.75 0  0.5 0.75 0  0.55 0.75 0  0.6 0.75 0  0.65 0.75 0  0.7 0.75 0  0.75 0.75 0  0.8 0.75 0  0.85 0.75 0  0.9 0.75 0  0.95 0.75 0  1 0.75 0  0 0.8 0  0.05 0.8 0  0.1 0.8 0  0.15 0.8 0  0.2 0.8 0  0.25 0.8 0  0.3 0.8 0  0.35 0.8 0  0.4 0.8 0  0.45 0.8 0  0.5 0.8 0  0.55 0.8 0  0.6 0.8 0  0.65 0.8 0  0.7 0.8 0  0.75 0.8 0  0.8 0.8 0  0.85 0.8 0  0.9 0.8 0  0.95 0.8 0  1 0.8 0  0 0.85 0  0.05 0.85 0  0.1 0.85 0  0.15 0.85 0  0.2 0.85 0  0.25 0.85 0  0.3 0.85 0  0.35 0.85 0  0.4 0.85 0  0.45 0.85 0  0.5 0.85 0  0.55 0.85 0  0.6 0.85 0  0.65 0.85 0  0.7 0.85 0  0.75 0.85 0  0.8 0.85 0  0.85 0.85 0  0.9 0.85 0  0.95 0.85 0  1 0.85 0  0 0.9 0  0.05 0.9 0  0.1 0.9 0  0.15 0.9 0  0.2 0.9 0  0.25 0.9 0  0.3 0.9 0  0.35 0.9 0  0.4 0.9 0  0.45 0.9 0  0.5 0.9 0  0.55 0.9 0  0.6 0.9 0  0.65 0.9 0  0.7 0.9 0  0.75 0.9 0  0.8 0.9 0  0.85 0.9 0  0.9 0.9 0  0.95 0.9 0  1 0.9 0  0 0.95 0  0.05 0.95 0  0.1 0.95 0  0.15 0.95 0  0.2 0.95 0  0.25 0.95 0  0.3 0.95 0  0.35 0.95 0  0.4 0.95 0  0.45 0.95 0  0.5 0.95 0  0.55 0.95 0  0.6 0.95 0  0.65 0.95 0  0.7 0.95 0  0.75 0.95 0  0.8 0.95 0  0.85 0.95 0  0.9 0.95 0  0.95 0.95 0  1 0.95 0  0 1 0  0.05 1 0  0.1 1 0  0.15 1 0  0.2 1 0  0.25 1 0  0.3 1 0  0.35 1 0  0.4 1 0  0.45 1 0  0.5 1 0  0.55 1 0  0.6 1 0  0.65 1 0  0.7 1 0  0.75 1 0  0.8 1 0  0.85 1 0  0.9 1 0  0.95 1 0  1 1 0  </DataArray>
</Points>
<Cells>
[...]
<PointData  Scalars="f_25"> 
<DataArray  type="Float64"  Name="f_25"  format="ascii">0.0000000000000000e+00  0.0000000000000000e+00  0.0000000000000000e+00  0.0000000000000000e+00  0.0000000000000000e+00  0.0000000000000000e+00  0.0000000000000000e+00  0.0000000000000000e+00  0.0000000000000000e+00  0.0000000000000000e+00  0.0000000000000000e+00  0.0000000000000000e+00  0.0000000000000000e+00  0.0000000000000000e+00  0.0000000000000000e+00  0.0000000000000000e+00  0.0000000000000000e+00  0.0000000000000000e+00  0.0000000000000000e+00  0.0000000000000000e+00  0.0000000000000000e+00  0.0000000000000000e+00  2.3650987135413069e-05  6.1576165555685326e-05  1.1681231723797568e-04  1.9239062521040948e-04  2.9093434718093387e-04  4.1430077292756661e-04  5.6324961011427707e-04  7.3714835848573716e-04  9.3372254497051024e-04  1.1488393169158664e-03  1.3762781542971938e-03  1.6073884431956668e-03  1.8304514809066160e-03  2.0294375011235366e-03  2.1816449480076107e-03  2.2533641319672916e-03  2.1920648517156790e-03  1.9122366999317539e-03  1.2685642460975241e-03  0.0000000000000000e+00  0.0000000000000000e+00  6.1576165555685326e-05  1.5813223054642476e-04  2.9775895075361577e-04  4.8815842827773363e-04  7.3589892429397363e-04  1.0455947980635373e-03  1.4191005831757034e-03  1.8547787714950415e-03  2.3468683165106916e-03  2.8849247220366376e-03  3.4532125315427840e-03  4.0297940439196741e-03  4.5848522309329676e-03  5.0774734789411540e-03  5.4496324295066883e-03  5.6153540047824890e-03  5.4417717046301994e-03  4.7166805751921916e-03  3.0935952198541520e-03  0.0000000000000000e+00  0.0000000000000000e+00  1.1681231723797575e-04  2.9775895075361583e-04  5.5793612392646022e-04  9.1162827971731999e-04  1.3709557345200241e-03  1.9443970598550626e-03  2.6353207015803221e-03  3.4406360053055771e-03  4.3496137389918595e-03  5.3428198150728525e-03  6.3909377260710151e-03  7.4530022521127172e-03  8.4731921986364606e-03  9.3747739239671991e-03  1.0048959024320353e-02  1.0335205799909569e-02  9.9876778009389076e-03  8.6199932593851031e-03  5.6170889907259007e-03  0.0000000000000000e+00  0.0000000000000000e+00  1.9239062521040953e-04  4.8815842827773379e-04  9.1162827971732021e-04  1.4858280772966966e-03  2.2302803446855430e-03  3.1586205220962200e-03  4.2762312516419739e-03  5.5780572753003597e-03  7.0466746152475709e-03  8.6505173801565763e-03  1.0341894756274901e-02  1.2054025958266148e-02  1.3695728885365934e-02  1.5141538329365357e-02  1.6213789211248133e-02  1.6651440561666630e-02  1.6058004740981940e-02  1.3817859539430833e-02  8.9667900941875298e-03  0.0000000000000000e+00  0.0000000000000000e+00  2.9093434718093398e-04  7.3589892429397363e-04  1.3709557345200245e-03  2.2302803446855430e-03  3.3428587357722758e-03  4.7289356927915560e-03  6.3964850096450221e-03  8.3379344517058637e-03  1.0527245458606442e-02  1.2917196131611700e-02  1.5436315840432145e-02  1.7984324781114475e-02  2.0424071322886636e-02  2.2566731835491002e-02  2.4145309474414400e-02  2.4769097394987508e-02  2.3848662957818390e-02  2.0477141901061618e-02  1.3249687770146817e-02  0.0000000000000000e+00  0.0000000000000000e+00  4.1430077292756661e-04  1.0455947980635371e-03  1.9443970598550630e-03  3.1586205220962222e-03  4.7289356927915560e-03  6.6837736177575166e-03  9.0343468127627915e-03  1.1770006332471017e-02  1.4854066146226988e-02  1.8219874328699488e-02  2.1766352337673083e-02  2.5351398242196631e-02  2.8780367320628032e-02  3.1785178935336202e-02  3.3987298588115021e-02  3.4834759104138226e-02  3.3499446448401318e-02  2.8716241161985605e-02  1.8540887007936158e-02  0.0000000000000000e+00  0.0000000000000000e+00  5.6324961011427772e-04  1.4191005831757056e-03  2.6353207015803238e-03  4.2762312516419774e-03  6.3964850096450230e-03  9.0343468127627915e-03  1.2204973945168557e-02  1.5894115570493299e-02  2.0052398797283117e-02  2.4589898161976011e-02  2.9369940299448290e-02  3.4199999401733835e-02  3.8815980906227232e-02  4.2854020947222494e-02  4.5800970882923411e-02  4.6910830321899820e-02  4.5069491826720272e-02  3.8584499775442337e-02  2.4870871524760505e-02  0.0000000000000000e+00  0.0000000000000000e+00  7.3714835848573803e-04  1.8547787714950439e-03  3.4406360053055793e-03  5.5780572753003632e-03  8.3379344517058671e-03  1.1770006332471024e-02  1.5894115570493299e-02  2.0691963663007594e-02  2.6099572322189499e-02  3.2000052322799649e-02  3.8215322142213230e-02  4.4494013642384755e-02  5.0490817330627068e-02  5.5729779294304942e-02  5.9540364484226005e-02  6.0950276377547338e-02  5.8513047959461550e-02  5.0041615339795217e-02  3.2212415300966531e-02  0.0000000000000000e+00  0.0000000000000000e+00  9.3372254497051121e-04  2.3468683165106946e-03  4.3496137389918655e-03  7.0466746152475779e-03  1.0527245458606447e-02  1.4854066146226988e-02  2.0052398797283117e-02  2.6099572322189509e-02  3.2915346458132030e-02  4.0352588910359505e-02  4.8186563460411905e-02  5.6099379969311150e-02  6.3653702252627425e-02  7.0246443811863735e-02  7.5028678647532474e-02  7.6772175950973173e-02  7.3655840771837372e-02  6.2937335983458548e-02  4.0467471224999038e-02  0.0000000000000000e+00  0.0000000000000000e+00  1.1488393169158675e-03  2.8849247220366406e-03  5.3428198150728594e-03  8.6505173801565832e-03  1.2917196131611701e-02  1.8219874328699485e-02  2.4589898161976001e-02  3.2000052322799628e-02  4.0352588910359491e-02  4.9467550971583424e-02  5.9069316985047852e-02  6.8767179442494220e-02  7.8022814080725103e-02  8.6093467400595702e-02  9.1934341644741888e-02  9.4036807237039444e-02  9.0170773404048207e-02  7.6990355551030676e-02  4.9453362046012729e-02  0.0000000000000000e+00  0.0000000000000000e+00  1.3762781542971949e-03  3.4532125315427870e-03  6.3909377260710203e-03  1.0341894756274903e-02  1.5436315840432134e-02  2.1766352337673073e-02  2.9369940299448283e-02  3.8215322142213203e-02  4.8186563460411877e-02  5.9069316985047818e-02  7.0534372723723204e-02  8.2114042243650140e-02  9.3162953776237803e-02  1.0279013226518242e-01  1.0974304286858563e-01  1.1221641645994349e-01  1.0754926468920750e-01  9.1763245114572276e-02  5.8886230077054728e-02  0.0000000000000000e+00  0.0000000000000000e+00  1.6073884431956678e-03  4.0297940439196758e-03  7.4530022521127224e-03  1.2054025958266143e-02  1.7984324781114450e-02  2.5351398242196604e-02  3.4199999401733808e-02  4.4494013642384721e-02  5.6099379969311081e-02  6.8767179442494136e-02  8.2114042243650098e-02  9.5594161777965439e-02  1.0845323099774722e-01  1.1964926689402729e-01  1.2771830026073117e-01  1.3055413856767895e-01  1.2506106698006825e-01  1.0662734952188253e-01  6.8357853136547478e-02  0.0000000000000000e+00  0.0000000000000000e+00  1.8304514809066169e-03  4.5848522309329693e-03  8.4731921986364658e-03  1.3695728885365931e-02  2.0424071322886626e-02  2.8780367320628011e-02  3.8815980906227204e-02  5.0490817330627033e-02  6.3653702252627412e-02  7.8022814080725061e-02  9.3162953776237775e-02  1.0845323099774723e-01  1.2303431807520343e-01  1.3571850571217917e-01  1.4483814238286730e-01  1.4799857677741141e-01  1.4169080080152560e-01  1.2070778899804414e-01  7.7299587378674470e-02  0.0000000000000000e+00  0.0000000000000000e+00  2.0294375011235370e-03  5.0774734789411574e-03  9.3747739239671991e-03  1.5141538329365349e-02  2.2566731835490985e-02  3.1785178935336167e-02  4.2854020947222467e-02  5.5729779294304914e-02  7.0246443811863721e-02  8.6093467400595702e-02  1.0279013226518242e-01  1.1964926689402729e-01  1.3571850571217919e-01  1.4968094400053969e-01  1.5968895777703060e-01  1.6309517519512587e-01  1.5603368674558202e-01  1.3279414161469746e-01  8.4924504515168642e-02  0.0000000000000000e+00  0.0000000000000000e+00  2.1816449480076116e-03  5.4496324295066892e-03  1.0048959024320356e-02  1.6213789211248126e-02  2.4145309474414393e-02  3.3987298588115007e-02  4.5800970882923384e-02  5.9540364484225998e-02  7.5028678647532460e-02  9.1934341644741874e-02  1.0974304286858555e-01  1.2771830026073111e-01  1.4483814238286730e-01  1.5968895777703065e-01  1.7028941280251739e-01  1.7380781244844817e-01  1.6612634783289831e-01  1.4119757826083482e-01  9.0136326766819624e-02  0.0000000000000000e+00  0.0000000000000000e+00  2.2533641319672920e-03  5.6153540047824890e-03  1.0335205799909567e-02  1.6651440561666623e-02  2.4769097394987501e-02  3.4834759104138198e-02  4.6910830321899799e-02  6.0950276377547311e-02  7.6772175950973104e-02  9.4036807237039388e-02  1.1221641645994342e-01  1.3055413856767892e-01  1.4799857677741152e-01  1.6309517519512598e-01  1.7380781244844831e-01  1.7723558492264660e-01  1.6918215350405108e-01  1.4353175079256750e-01  9.1393185162193316e-02  0.0000000000000000e+00  0.0000000000000000e+00  2.1920648517156785e-03  5.4417717046301986e-03  9.9876778009389024e-03  1.6058004740981922e-02  2.3848662957818362e-02  3.3499446448401290e-02  4.5069491826720244e-02  5.8513047959461502e-02  7.3655840771837316e-02  9.0170773404048069e-02  1.0754926468920742e-01  1.2506106698006819e-01  1.4169080080152568e-01  1.5603368674558216e-01  1.6612634783289842e-01  1.6918215350405114e-01  1.6119701790751620e-01  1.3639654388314323e-01  8.6520003404108786e-02  0.0000000000000000e+00  0.0000000000000000e+00  1.9122366999317535e-03  4.7166805751921899e-03  8.6199932593850996e-03  1.3817859539430818e-02  2.0477141901061594e-02  2.8716241161985574e-02  3.8584499775442302e-02  5.0041615339795176e-02  6.2937335983458534e-02  7.6990355551030620e-02  9.1763245114572234e-02  1.0662734952188251e-01  1.2070778899804419e-01  1.3279414161469760e-01  1.4119757826083495e-01  1.4353175079256753e-01  1.3639654388314329e-01  1.1496018709328833e-01  7.2487584874357455e-02  0.0000000000000000e+00  0.0000000000000000e+00  1.2685642460975237e-03  3.0935952198541507e-03  5.6170889907258955e-03  8.9667900941875177e-03  1.3249687770146797e-02  1.8540887007936133e-02  2.4870871524760481e-02  3.2212415300966524e-02  4.0467471224999031e-02  4.9453362046012729e-02  5.8886230077054735e-02  6.8357853136547450e-02  7.7299587378674497e-02  8.4924504515168697e-02  9.0136326766819666e-02  9.1393185162193358e-02  8.6520003404108786e-02  7.2487584874357455e-02  4.5253932697905029e-02  0.0000000000000000e+00  0.0000000000000000e+00  0.0000000000000000e+00  0.0000000000000000e+00  0.0000000000000000e+00  0.0000000000000000e+00  0.0000000000000000e+00  0.0000000000000000e+00  0.0000000000000000e+00  0.0000000000000000e+00  0.0000000000000000e+00  0.0000000000000000e+00  0.0000000000000000e+00  0.0000000000000000e+00  0.0000000000000000e+00  0.0000000000000000e+00  0.0000000000000000e+00  0.0000000000000000e+00  0.0000000000000000e+00  0.0000000000000000e+00  0.0000000000000000e+00  0.0000000000000000e+00  </DataArray> 
</PointData> 
</Piece>
</UnstructuredGrid>
</VTKFile>