<?xml version="1.0"?>
<VTKFile type="UnstructuredGrid"  version="0.1"  >
<UnstructuredGrid>
<Piece  NumberOfPoints="441" NumberOfCells="800">
<Points>
<DataArray  type="Float64"  NumberOfComponents="3"  format="ascii">0 0 0  0.05 0 0  0.1 0 0  0.15 0 0  0.2 0 0  0.25 0 0  0.3 0 0  0.35 0 0  0.4 0 0  0.45 0 0  0.5 0 0  0.55 0 0  0.6 0 0  0.65 0 0  0.7 0 0  0.75 0 0  0.8 0 0  0.85 0 0  0.9 0 0  0.95 0 0  1 0 0  0 0.05 0  0.05 0.05 0  0.1 0.05 0  0.15 0.05 0  0.2 0.05 0  0.25 0.05 0  0.3 0.05 0  0.35 0.05 0  0.4 0.05 0  0.45 0.05 0  0.5 0.05 0  0.55 0.05 0  0.6 0.05 0  0.65 0.05 0  0.7 0.05 0  0.75 0.05 0  0.8 0.05 0  0.85 0.05 0  0.9 0.05 0  0.95 0.05 0  1 0.05 0  0 0.1 0  0.05 0.1 0  0.1 0.1 0  0.15 0.1 0  0.2 0.1 0  0.25 0.1 0  0.3 0.1 0  0.35 0.1 0  0.4 0.1 0  0.45 0.1 0  0.5 0.1 0  0.55 0.1 0  0.6 0.1 0  0.65 0.1 0  0.7 0.1 0  0.75 0.1 0  0.8 0.1 0  0.85 0.1 0  0.9 0.1 0  0.95 0.1 0  1 0.1 0  0 0.15 0  0.05 0.15 0  0.1 0.15 0  0.15 0.15 0  0.2 0.15 0  0.25 0.15 0  0.3 0.15 0  0.35 0.15 0  0.4 0.15 0  0.45 0.15 0  0.5 0.15 0  0.55 0.15 0  0.6 0.15 0  0.65 0.15 0  0.7 0.15 0  0.75 0.15 0  0.8 0.15 0  0.85 0.15 0  0.9 0.15 0  0.95 0.15 0  1 0.15 0  0 0.2 0  0.05 0.2 0  0.1 0.2 0  0.15 0.2 0  0.2 0.2 0  0.25 0.2 0  0.3 0.2 0  0.35 0.2 0  0.4 0.2 0  0.45 0.2 0  0.5 0.2 0  0.55 0.2 0  0.6 0.2 0  0.65 0.2 0  0.7 0.2 0  0.75 0.2 0  0.8 0.2 0  0.85 0.2 0  0.9 0.2 0  0.95 0.2 0  1 0.2 0  0 0.25 0  0.05 0.25 0  0.1 0.25 0  0.15 0.25 0  0.2 0.25 0  0.25 0.25 0  0.3 0.25 0  0.35 0.25 0  0.4 0.25 0  0.45 0.25 0  0.5 0.25 0  0.55 0.25 0  0.6 0.25 0  0.65 0.25 0  0.7 0.25 0  0.75 0.25 0  0.8 0.25 0  0.85 0.25 0  0.9 0.25 0  0.95 0.25 0  1 0.25 0  0 0.3 0  0.05 0.3 0  0.1 0.3 0  0.15 0.3 0  0.2 0.3 0  0.25 0.3 0  0.3 0.3 0  0.35 0.3 0  0.4 0.3 0  0.45 0.3 0  0.5 0.3 0  0.55 0.3 0  0.6 0.3 0  0.65 0.3 0  0.7 0.3 0  0.75 0.3 0  0.8 0.3 0  0.85 0.3 0  0.9 0.3 0  0.95 0.3 0  1 0.3 0  0 0.35 0  0.05 0.35 0  0.1 0.35 0  0.15 0.35 0  0.2 0.35 0  0.25 0.35 0  0.3 0.35 0  0.35 0.35 0  0.4 0.35 0  0.45 0.35 0  0.5 0.35 0  0.55 0.35 0  0.6 0.35 0  0.65 0.35 0  0.7 0.35 0  0.75 0.35 0  0.8 0.35 0  0.85 0.35 0  0.9 0.35 0  0.95 0.35 0  1 0.35 0  0 0.4 0  0.05 0.4 0  0.1 0.4 0  0.15 0.4 0  0.2 0.4 0  0.25 0.4 0  0.3 0.4 0  0.35 0.4 0  0.4 0.4 0  0.45 0.4 0  0.5 0.4 0  0.55 0.4 0  0.6 0.4 0  0.65 0.4 0  0.7 0.4 0  0.75 0.4 0  0.8 0.4 0  0.85 0.4 0  0.9 0.4 0  0.95 0.4 0  1 0.4 0  0 0.45 0  0.05 0.45 0  0.1 0.45 0  0.15 0.45 0  0.2 0.45 0  0.25 0.45 0  0.3 0.45 0  0.35 0.45 0  0.4 0.45 0  0.45 0.45 0  0.5 0.45 0  0.55 0.45 0  0.6 0.45 0  0.65 0.45 0  0.7 0.45 0  0.75 0.45 0  0.8 0.45 0  0.85 0.45 0  0.9 0.45 0  0.95 0.45 0  1 0.45 0  0 0.5 0  0.05 0.5 0  0.1 0.5 0  0.15 0.5 0  0.2 0.5 0  0.25 0.5 0  0.3 0.5 0  0.35 0.5 0  0.4 0.5 0  0.45 0.5 0  0.5 0.5 0  0.55 0.5 0  0.6 0.5 0  0.65 0.5 0  0.7 0.5 0  0.75 0.5 0  0.8 0.5 0  0.85 0.5 0  0.9 0.5 0  0.95 0.5 0  1 0.5 0  0 0.55 0  0.05 0.55 0  0.1 0.55 0  0.15 0.55 0  0.2 0.55 0  0.25 0.55 0  0.3 0.55 0  0.35 0.55 0  0.4 0.55 0  0.45 0.55 0  0.5 0.55 0  0.55 0.55 0  0.6 0.55 0  0.65 0.55 0  0.7 0.55 0  0.75 0.55 0  0.8 0.55 0  0.85 0.55 0  0.9 0.55 0  0.95 0.55 0  1 0.55 0  0 0.6 0  0.05 0.6 0  0.1 0.6 0  0.15 0.6 0  0.2 0.6 0  0.25 0.6 0  0.3 0.6 0  0.35 0.6 0  0.4 0.6 0  0.45 0.6 0  0.5 0.6 0  0.55 0.6 0  0.6 0.6 0  0.65 0.6 0  0.7 0.6 0  0.75 0.6 0  0.8 0.6 0  0.85 0.6 0  0.9 0.6 0  0.95 0.6 0  1 0.6 0  0 0.65 0  0.05 0.65 0  0.1 0.65 0  0.15 0.65 0  0.2 0.65 0  0.25 0.65 0  0.3 0.65 0  0.35 0.65 0  0.4 0.65 0  0.45 0.65 0  0.5 0.65 0  0.55 0.65 0  0.6 0.65 0  0.65 0.65 0  0.7 0.65 0  0.75 0.65 0  0.8 0.65 0  0.85 0.65 0  0.9 0.65 0  0.95 0.65 0  1 0.65 0  0 0.7 0  0.05 0.7 0  0.1 0.7 0  0.15 0.7 0  0.2 0.7 0  0.25 0.7 0  0.3 0.7 0  0.35 0.7 0  0.4 0.7 0  0.45 0.7 0  0.5 0.7 0  0.55 0.7 0  0.6 0.7 0  0.65 0.7 0  0.7 0.7 0  0.75 0.7 0  0.8 0.7 0  0.85 0.7 0  0.9 0.7 0  0.95 0.7 0  1 0.7 0  0 0.75 0  0.05 0.75 0  0.1 0.75 0  0.15 0.75 0  0.2 0.75 0  0.25 0.75 0  0.3 0.75 0  0.35 0.75 0  0.4 0.75 0  0.45 0.75 0  0.5 0.75 0  0.55 0.75 0  0.6 0.75 0  0.65 0.75 0  0.7 0.75 0  0.75 0.75 0  0.8 0.75 0  0.85 0.75 0  0.9 0.75 0  0.95 0.75 0  1 0.75 0  0 0.8 0  0.05 0.8 0  0.1 0.8 0  0.15 0.8 0  0.2 0.8 0  0.25 0.8 0  0.3 0.8 0  0.35 0.8 0  0.4 0.8 0  0.45 0.8 0  0.5 0.8 0  0.55 0.8 0  0.6 0.8 0  0.65 0.8 0  0.7 0.8 0  0.75 0.8 0  0.8 0.8 0  0.85 0.8 0  0.9 0.8 0  0.95 0.8 0  1 0.8 0  0 0.85 0  0.05 0.85 0  0.1 0.85 0  0.15 0.85 0  0.2 0.85 0  0.25 0.85 0  0.3 0.85 0  0.35 0.85 0  0.4 0.85 0  0.45 0.85 0  0.5 0.85 0  0.55 0.85 0  0.6 0.85 0  0.65 0.85 0  0.7 0.85 0  0.75 0.85 0  0.8 0.85 0  0.85 0.85 0  0.9 0.85 0  0.95 0.85 0  1 0.85 0  0 0.9 0  0.05 0.9 0  0.1 0.9 0  0.15 0.9 0  0.2 0.9 0  0.25 0.9 0  0.3 0.9 0  0.35 0.9 0  0.4 0.9 0  0.45 0.9 0  0.5 0.9 0  0.55 0.9 0  0.6 0.9 0  0.65 0.9 0  0.7 0.9 0  0.75 0.9 0  0.8 0.9 0  0.85 0.9 0  0.9 0.9 0  0.95 0.9 0  1 0.9 0  0 0.95 0  0.05 0.95 0  0.1 0.95 0  0.15 0.95 0  0.2 0.95 0  0.25 0.95 0  0.3 0.95 0  0.35 0.95 0  0.4 0.95 0  0.45 0.95 0  0.5 0.95 0  0.55 0.95 0  0.6 0.95 0  0.65 0.95 0  0.7 0.95 0  0.75 0.95 0  0.8 0.95 0  0.85 0.95 0  0.9 0.95 0  0.95 0.95 0  1 0.95 0  0 1 0  0.05 1 0  0.1 1 0  0.15 1 0  0.2 1 0  0.25 1 0  0.3 1 0  0.35 1 0  0.4 1 0  0.45 1 0  0.5 1 0  0.55 1 0  0.6 1 0  0.65 1 0  0.7 1 0  0.75 1 0  0.8 1 0  0.85 1 0  0.9 1 0  0.95 1 0  1 1 0  </DataArray>
</Points>
<Cells>
[...]
<PointData  Scalars="f_25"> 
<DataArray  type="Float64"  Name="f_25"  format="ascii">0.0000000000000000e+00  0.0000000000000000e+00  0.0000000000000000e+00  0.0000000000000000e+00  0.0000000000000000e+00  0.0000000000000000e+00  0.0000000000000000e+00  0.0000000000000000e+00  0.0000000000000000e+00  0.0000000000000000e+00  0.0000000000000000e+00  0.0000000000000000e+00  0.0000000000000000e+00  0.0000000000000000e+00  0.0000000000000000e+00  0.0000000000000000e+00  0.0000000000000000e+00  0.0000000000000000e+00  0.0000000000000000e+00  0.0000000000000000e+00  0.0000000000000000e+00  0.0000000000000000e+00  3.1299728264378573e-04  7.9272257170817531e-04  1.4523054852918916e-03  2.2933652783651451e-03  3.3029443235209730e-03  4.4531795194901070e-03  5.7030698809458743e-03  7.0017066682239301e-03  8.2922447803100603e-03  9.5158944452819662e-03  1.0615274490476117e-02  1.1536485233619177e-02  1.2229082725872246e-02  1.2642577782005371e-02  1.2716869436882793e-02  1.2361672789783397e-02  1.1415483477861386e-02  9.5652841448688065e-03  6.1862061533467161e-03  0.0000000000000000e+00  0.0000000000000000e+00  7.9272257170817575e-04  1.9851264614597869e-03  3.6154827452350375e-03  5.6898538300013506e-03  8.1774412870880345e-03  1.1010489137310028e-02  1.4088749789629164e-02  1.7287392023963087e-02  2.0466706670460112e-02  2.3481861068996603e-02  2.6191054475253727e-02  2.8460432034615891e-02  3.0163653726445170e-02  3.1172633487294866e-02  3.1333051778137701e-02  3.0412863314019059e-02  2.8002559689394354e-02  2.3329493063978291e-02  1.4920225138808486e-02  0.0000000000000000e+00  0.0000000000000000e+00  1.4523054852918927e-03  3.6154827452350392e-03  6.5609693133589289e-03  1.0301925840285170e-02  1.4784864689377092e-02  1.9889556588589527e-02  2.5436977245877172e-02  3.1203382691283459e-02  3.6937636587428740e-02  4.2378654876459289e-02  4.7269952135967422e-02  5.1368237152592228e-02  5.4442155002450858e-02  5.6254832121858556e-02  5.6518876389906630e-02  5.4803599461977354e-02  5.0359613453559236e-02  4.1803152595049728e-02  2.6569165439806971e-02  0.0000000000000000e+00  0.0000000000000000e+00  2.2933652783651468e-03  5.6898538300013558e-03  1.0301925840285170e-02  1.6152317814688850e-02  2.3160264716199964e-02  3.1140838284834757e-02  3.9816889653111032e-02  4.8840633358824943e-02  5.7820423226154286e-02  6.6347812903647774e-02  7.4020109592273176e-02  8.0453520280206081e-02  8.5280658320036506e-02  8.8122472472645194e-02  8.8517220150754292e-02  8.5776260294419981e-02  7.8716149607421432e-02  6.5186579482304358e-02  4.1272672511310809e-02  0.0000000000000000e+00  0.0000000000000000e+00  3.3029443235209777e-03  8.1774412870880431e-03  1.4784864689377097e-02  2.3160264716199974e-02  3.3191889177856163e-02  4.4619359026676755e-02  5.7049902359310421e-02  6.9988528495629324e-02  8.2875848016648143e-02  9.5126500746524498e-02  1.0616122573726493e-01  1.1542538995366319e-01  1.2238489833386987e-01  1.2648526189647624e-01  1.2704941748345772e-01  1.2307261563599635e-01  1.1284601116541035e-01  9.3302226641127931e-02  5.8924750782024360e-02  0.0000000000000000e+00  0.0000000000000000e+00  4.4531795194901113e-03  1.1010489137310033e-02  1.9889556588589520e-02  3.1140838284834778e-02  4.4619359026676776e-02  5.9981138196410211e-02  7.6703797614728952e-02  9.4126064674710241e-02  1.1149785575884542e-01  1.2803148631285866e-01  1.4294451996572763e-01  1.5548439726395141e-01  1.6492245624771018e-01  1.7049822933826358e-01  1.7128172130176619e-01  1.6589924737220571e-01  1.5203466035691393e-01  1.2556987729323724e-01  7.9164975923380315e-02  0.0000000000000000e+00  0.0000000000000000e+00  5.7030698809458812e-03  1.4088749789629177e-02  2.5436977245877190e-02  3.9816889653111039e-02  5.7049902359310421e-02  7.6703797614728952e-02  9.8117553590444342e-02  1.2045050282218280e-01  1.4274540464457028e-01  1.6399337673474126e-01  1.8318841523696933e-01  1.9935865141858364e-01  2.1155826988443099e-01  2.1879560587658423e-01  2.1985659078605208e-01  2.1295544932545948e-01  1.9510325528609773e-01  1.6102672980968602e-01  1.0139276334179848e-01  0.0000000000000000e+00  0.0000000000000000e+00  7.0017066682239353e-03  1.7287392023963111e-02  3.1203382691283491e-02  4.8840633358824957e-02  6.9988528495629324e-02  9.4126064674710297e-02  1.2045050282218289e-01  1.4793604914016309e-01  1.7541006648242591e-01  2.0163208842550773e-01  2.2536043238541686e-01  2.4539035826073211e-01  2.6054375790413759e-01  2.6958023041036788e-01  2.7097981892369172e-01  2.6251517300510135e-01  2.4048187892107437e-01  1.9838690576180842e-01  1.2480466451157049e-01  0.0000000000000000e+00  0.0000000000000000e+00  8.2922447803100638e-03  2.0466706670460168e-02  3.6937636587428803e-02  5.7820423226154348e-02  8.2875848016648226e-02  1.1149785575884548e-01  1.4274540464457036e-01  1.7541006648242594e-01  2.0810491132176812e-01  2.3935732618934244e-01  2.6768760836523903e-01  2.9165399995024371e-01  3.0984011009658768e-01  3.2074884008613130e-01  3.2254418478587055e-01  3.1254464447190172e-01  2.8631541070423749e-01  2.3612739148308287e-01  1.4844759425489931e-01  0.0000000000000000e+00  0.0000000000000000e+00  9.5158944452819767e-03  2.3481861068996635e-02  4.2378654876459344e-02  6.6347812903647857e-02  9.5126500746524581e-02  1.2803148631285877e-01  1.6399337673474135e-01  2.0163208842550776e-01  2.3935732618934250e-01  2.7547427234688054e-01  3.0827348318281483e-01  3.3608244661192871e-01  3.5725078285486400e-01  3.7002763203343675e-01  3.7226408059626481e-01  3.6083107590991942e-01  3.3057972479513276e-01  2.7258230992432886e-01  1.7127694859902423e-01  0.0000000000000000e+00  0.0000000000000000e+00  1.0615274490476124e-02  2.6191054475253748e-02  4.7269952135967463e-02  7.4020109592273217e-02  1.0616122573726498e-01  1.4294451996572766e-01  1.8318841523696935e-01  2.2536043238541689e-01  2.6768760836523908e-01  3.0827348318281478e-01  3.4519805912671903e-01  3.7657519210638990e-01  4.0053569177608278e-01  4.1508953364296086e-01  4.1779230687999874e-01  4.0509448192964298e-01  3.7118252695718673e-01  3.0602434153982805e-01  1.9220631643197206e-01  0.0000000000000000e+00  0.0000000000000000e+00  1.1536485233619186e-02  2.8460432034615922e-02  5.1368237152592269e-02  8.0453520280206123e-02  1.1542538995366322e-01  1.5548439726395144e-01  1.9935865141858361e-01  2.4539035826073211e-01  2.9165399995024371e-01  3.3608244661192854e-01  3.7657519210638946e-01  4.1106055189879848e-01  4.3747684511921603e-01  4.5362152582047377e-01  4.5678688201078865e-01  4.4305114838079213e-01  4.0601976176703014e-01  3.3470911180026020e-01  2.1013342065494947e-01  0.0000000000000000e+00  0.0000000000000000e+00  1.2229082725872257e-02  3.0163653726445208e-02  5.4442155002450913e-02  8.5280658320036548e-02  1.2238489833386990e-01  1.6492245624771018e-01  2.1155826988443097e-01  2.6054375790413753e-01  3.0984011009658752e-01  3.5725078285486378e-01  4.0053569177608250e-01  4.3747684511921597e-01  4.6585783419809584e-01  4.8330269532198511e-01  4.8688793597070973e-01  4.7238972763866188e-01  4.3295156836577808e-01  3.5685261514483840e-01  2.2392328083358187e-01  0.0000000000000000e+00  0.0000000000000000e+00  1.2642577782005374e-02  3.1172633487294880e-02  5.6254832121858570e-02  8.8122472472645166e-02  1.2648526189647624e-01  1.7049822933826347e-01  2.1879560587658411e-01  2.6958023041036772e-01  3.2074884008613092e-01  3.7002763203343664e-01  4.1508953364296075e-01  4.5362152582047405e-01  4.8330269532198544e-01  5.0163638556477075e-01  5.0554760808565091e-01  4.9060466121063878e-01  4.4964729390351915e-01  3.7050027751431214e-01  2.3232270191514809e-01  0.0000000000000000e+00  0.0000000000000000e+00  1.2716869436882794e-02  3.1333051778137701e-02  5.6518876389906658e-02  8.8517220150754333e-02  1.2704941748345777e-01  1.7128172130176611e-01  2.1985659078605180e-01  2.7097981892369161e-01  3.2254418478587055e-01  3.7226408059626481e-01  4.1779230687999858e-01  4.5678688201078860e-01  4.8688793597070973e-01  5.0554760808565125e-01  5.0962431377093886e-01  4.9460218092872898e-01  4.5322355583806373e-01  3.7322685566133951e-01  2.3376926949452978e-01  0.0000000000000000e+00  0.0000000000000000e+00  1.2361672789783397e-02  3.0412863314019049e-02  5.4803599461977347e-02  8.5776260294419968e-02  1.2307261563599635e-01  1.6589924737220560e-01  2.1295544932545932e-01  2.6251517300510119e-01  3.1254464447190156e-01  3.6083107590991936e-01  4.0509448192964287e-01  4.4305114838079213e-01  4.7238972763866188e-01  4.9060466121063967e-01  4.9460218092872948e-01  4.7994791823724575e-01  4.3956081864032887e-01  3.6157921777862256e-01  2.2604493191486466e-01  0.0000000000000000e+00  0.0000000000000000e+00  1.1415483477861380e-02  2.8002559689394333e-02  5.0359613453559188e-02  7.8716149607421348e-02  1.1284601116541024e-01  1.5203466035691376e-01  1.9510325528609770e-01  2.4048187892107417e-01  2.8631541070423727e-01  3.3057972479513270e-01  3.7118252695718662e-01  4.0601976176703009e-01  4.3295156836577814e-01  4.4964729390351937e-01  4.5322355583806384e-01  4.3956081864032887e-01  4.0213435187746333e-01  3.3014549381696950e-01  2.0571824654528392e-01  0.0000000000000000e+00  0.0000000000000000e+00  9.5652841448687995e-03  2.3329493063978277e-02  4.1803152595049693e-02  6.5186579482304288e-02  9.3302226641127847e-02  1.2556987729323710e-01  1.6102672980968594e-01  1.9838690576180826e-01  2.3612739148308268e-01  2.7258230992432875e-01  3.0602434153982805e-01  3.3470911180026014e-01  3.5685261514483851e-01  3.7050027751431225e-01  3.7322685566133951e-01  3.6157921777862251e-01  3.3014549381696950e-01  2.7012577509248570e-01  1.6735094423673724e-01  0.0000000000000000e+00  0.0000000000000000e+00  6.1862061533467108e-03  1.4920225138808474e-02  2.6569165439806947e-02  4.1272672511310754e-02  5.8924750782024277e-02  7.9164975923380218e-02  1.0139276334179838e-01  1.2480466451157041e-01  1.4844759425489923e-01  1.7127694859902418e-01  1.9220631643197197e-01  2.1013342065494925e-01  2.2392328083358190e-01  2.3232270191514803e-01  2.3376926949452975e-01  2.2604493191486472e-01  2.0571824654528392e-01  1.6735094423673727e-01  1.0260777471924849e-01  0.0000000000000000e+00  0.0000000000000000e+00  0.0000000000000000e+00  0.0000000000000000e+00  0.0000000000000000e+00  0.0000000000000000e+00  0.0000000000000000e+00  0.0000000000000000e+00  0.0000000000000000e+00  0.0000000000000000e+00  0.0000000000000000e+00  0.0000000000000000e+00  0.0000000000000000e+00  0.0000000000000000e+00  0.0000000000000000e+00  0.0000000000000000e+00  0.0000000000000000e+00  0.0000000000000000e+00  0.0000000000000000e+00  0.0000000000000000e+00  0.0000000000000000e+00  0.0000000000000000e+00  </DataArray> 
</PointData> 
</Piece>
</UnstructuredGrid>
</VTKFile>