<?xml version="1.0"?>
<VTKFile type="UnstructuredGrid"  version="0.1"  >
<UnstructuredGrid>
<Piece  NumberOfPoints="441" NumberOfCells="800">
<Points>
<DataArray  type="Float64"  NumberOfComponents="3"  format="ascii">0 0 0  0.05 0 0  0.1 0 0  0.15 0 0  0.2 0 0  0.25 0 0  0.3 0 0  0.35 0 0  0.4 0 0  0.45 0 0  0.5 0 0  0.55 0 0  0.6 0 0  0.65 0 0  0.7 0 0  0.75 0 0  0.8 0 0  0.85 0 0  0.9 0 0  0.95 0 0  1 0 0  0 0.05 0  0.05 0.05 0  0.1 0.05 0  0.15 0.05 0  0.2 0.05 0  0.25 0.05 0  0.3 0.05 0  0.35 0.05 0  0.4 0.05 0  0.45 0.05 0  0.5 0.05 0  0.55 0.05 0  0.6 0.05 0  0.65 0.05 0  0.7 0.05 0  0.75 0.05 0  0.8 0.05 0  0.85 0.05 0  0.9 0.05 0  0.95 0.05 0  1 0.05 0  0 0.1 0  0.05 0.1 0  0.1 0.1 0  0.15 0.1 0  0.2 0.1 0  0.25 0.1 0  0.3 0.1 0  0.35 0.1 0  0.4 0.1 0  0.45 0.1 0  0.5 0.1 0  0.55 0.1 0  0.6 0.1 0  0.65 0.1 0  0.7 0.1 0  0.75 0.1 0  0.8 0.1 0  0.85 0.1 0  0.9 0.1 0  0.95 0.1 0  1 0.1 0  0 0.15 0  0.05 0.15 0  0.1 0.15 0  0.15 0.15 0  0.2 0.15 0  0.25 0.15 0  0.3 0.15 0  0.35 0.15 0  0.4 0.15 0  0.45 0.15 0  0.5 0.15 0  0.55 0.15 0  0.6 0.15 0  0.65 0.15 0  0.7 0.15 0  0.75 0.15 0  0.8 0.15 0  0.85 0.15 0  0.9 0.15 0  0.95 0.15 0  1 0.15 0  0 0.2 0  0.05 0.2 0  0.1 0.2 0  0.15 0.2 0  0.2 0.2 0  0.25 0.2 0  0.3 0.2 0  0.35 0.2 0  0.4 0.2 0  0.45 0.2 0  0.5 0.2 0  0.55 0.2 0  0.6 0.2 0  0.65 0.2 0  0.7 0.2 0  0.75 0.2 0  0.8 0.2 0  0.85 0.2 0  0.9 0.2 0  0.95 0.2 0  1 0.2 0  0 0.25 0  0.05 0.25 0  0.1 0.25 0  0.15 0.25 0  0.2 0.25 0  0.25 0.25 0  0.3 0.25 0  0.35 0.25 0  0.4 0.25 0  0.45 0.25 0  0.5 0.25 0  0.55 0.25 0  0.6 0.25 0  0.65 0.25 0  0.7 0.25 0  0.75 0.25 0  0.8 0.25 0  0.85 0.25 0  0.9 0.25 0  0.95 0.25 0  1 0.25 0  0 0.3 0  0.05 0.3 0  0.1 0.3 0  0.15 0.3 0  0.2 0.3 0  0.25 0.3 0  0.3 0.3 0  0.35 0.3 0  0.4 0.3 0  0.45 0.3 0  0.5 0.3 0  0.55 0.3 0  0.6 0.3 0  0.65 0.3 0  0.7 0.3 0  0.75 0.3 0  0.8 0.3 0  0.85 0.3 0  0.9 0.3 0  0.95 0.3 0  1 0.3 0  0 0.35 0  0.05 0.35 0  0.1 0.35 0  0.15 0.35 0  0.2 0.35 0  0.25 0.35 0  0.3 0.35 0  0.35 0.35 0  0.4 0.35 0  0.45 0.35 0  0.5 0.35 0  0.55 0.35 0  0.6 0.35 0  0.65 0.35 0  0.7 0.35 0  0.75 0.35 0  0.8 0.35 0  0.85 0.35 0  0.9 0.35 0  0.95 0.35 0  1 0.35 0  0 0.4 0  0.05 0.4 0  0.1 0.4 0  0.15 0.4 0  0.2 0.4 0  0.25 0.4 0  0.3 0.4 0  0.35 0.4 0  0.4 0.4 0  0.45 0.4 0  0.5 0.4 0  0.55 0.4 0  0.6 0.4 0  0.65 0.4 0  0.7 0.4 0  0.75 0.4 0  0.8 0.4 0  0.85 0.4 0  0.9 0.4 0  0.95 0.4 0  1 0.4 0  0 0.45 0  0.05 0.45 0  0.1 0.45 0  0.15 0.45 0  0.2 0.45 0  0.25 0.45 0  0.3 0.45 0  0.35 0.45 0  0.4 0.45 0  0.45 0.45 0  0.5 0.45 0  0.55 0.45 0  0.6 0.45 0  0.65 0.45 0  0.7 0.45 0  0.75 0.45 0  0.8 0.45 0  0.85 0.45 0  0.9 0.45 0  0.95 0.45 0  1 0.45 0  0 0.5 0  0.05 0.5 0  0.1 0.5 0  0.15 0.5 0  0.2 0.5 0  0.25 0.5 0  0.3 0.5 0  0.35 0.5 0  0.4 0.5 0  0.45 0.5 0  0.5 0.5 0  0.55 0.5 0  0.6 0.5 0  0.65 0.5 0  0.7 0.5 0  0.75 0.5 0  0.8 0.5 0  0.85 0.5 0  0.9 0.5 0  0.95 0.5 0  1 0.5 0  0 0.55 0  0.05 0.55 0  0.1 0.55 0  0.15 0.55 0  0.2 0.55 0  0.25 0.55 0  0.3 0.55 0  0.35 0.55 0  0.4 0.55 0  0.45 0.55 0  0.5 0.55 0  0.55 0.55 0  0.6 0.55 0  0.65 0.55 0  0.7 0.55 0  0.75 0.55 0  0.8 0.55 0  0.85 0.55 0  0.9 0.55 0  0.95 0.55 0  1 0.55 0  0 0.6 0  0.05 0.6 0  0.1 0.6 0  0.15 0.6 0  0.2 0.6 0  0.25 0.6 0  0.3 0.6 0  0.35 0.6 0  0.4 0.6 0  0.45 0.6 0  0.5 0.6 0  0.55 0.6 0  0.6 0.6 0  0.65 0.6 0  0.7 0.6 0  0.75 0.6 0  0.8 0.6 0  0.85 0.6 0  0.9 0.6 0  0.95 0.6 0  1 0.6 0  0 0.65 0  0.05 0.65 0  0.1 0.65 0  0.15 0.65 0  0.2 0.65 0  0.25 0.65 0  0.3 0.65 0  0.35 0.65 0  0.4 0.65 0  0.45 0.65 0  0.5 0.65 0  0.55 0.65 0  0.6 0.65 0  0.65 0.65 0  0.7 0.65 0  0.75 0.65 0  0.8 0.65 0  0.85 0.65 0  0.9 0.65 0  0.95 0.65 0  1 0.65 0  0 0.7 0  0.05 0.7 0  0.1 0.7 0  0.15 0.7 0  0.2 0.7 0  0.25 0.7 0  0.3 0.7 0  0.35 0.7 0  0.4 0.7 0  0.45 0.7 0  0.5 0.7 0  0.55 0.7 0  0.6 0.7 0  0.65 0.7 0  0.7 0.7 0  0.75 0.7 0  0.8 0.7 0  0.85 0.7 0  0.9 0.7 0  0.95 0.7 0  1 0.7 0  0 0.75 0  0.05 0.75 0  0.1 0.75 0  0.15 0.75 0  0.2 0.75 0  0.25 0.75 0  0.3 0.75 0  0.35 0.75 0  0.4 0.75 0  0.45 0.75 0  0.5 0.75 0  0.55 0.75 0  0.6 0.75 0  0.65 0.75 0  0.7 0.75 0  0.75 0.75 0  0.8 0.75 0  0.85 0.75 0  0.9 0.75 0  0.95 0.75 0  1 0.75 0  0 0.8 0  0.05 0.8 0  0.1 0.8 0  0.15 0.8 0  0.2 0.8 0  0.25 0.8 0  0.3 0.8 0  0.35 0.8 0  0.4 0.8 0  0.45 0.8 0  0.5 0.8 0  0.55 0.8 0  0.6 0.8 0  0.65 0.8 0  0.7 0.8 0  0.75 0.8 0  0.8 0.8 0  0.85 0.8 0  0.9 0.8 0  0.95 0.8 0  1 0.8 0  0 0.85 0  0.05 0.85 0  0.1 0.85 0  0.15 0.85 0  0.2 0.85 0  0.25 0.85 0  0.3 0.85 0  0.35 0.85 0  0.4 0.85 0  0.45 0.85 0  0.5 0.85 0  0.55 0.85 0  0.6 0.85 0  0.65 0.85 0  0.7 0.85 0  0.75 0.85 0  0.8 0.85 0  0.85 0.85 0  0.9 0.85 0  0.95 0.85 0  1 0.85 0  0 0.9 0  0.05 0.9 0  0.1 0.9 0  0.15 0.9 0  0.2 0.9 0  0.25 0.9 0  0.3 0.9 0  0.35 0.9 0  0.4 0.9 0  0.45 0.9 0  0.5 0.9 0  0.55 0.9 0  0.6 0.9 0  0.65 0.9 0  0.7 0.9 0  0.75 0.9 0  0.8 0.9 0  0.85 0.9 0  0.9 0.9 0  0.95 0.9 0  1 0.9 0  0 0.95 0  0.05 0.95 0  0.1 0.95 0  0.15 0.95 0  0.2 0.95 0  0.25 0.95 0  0.3 0.95 0  0.35 0.95 0  0.4 0.95 0  0.45 0.95 0  0.5 0.95 0  0.55 0.95 0  0.6 0.95 0  0.65 0.95 0  0.7 0.95 0  0.75 0.95 0  0.8 0.95 0  0.85 0.95 0  0.9 0.95 0  0.95 0.95 0  1 0.95 0  0 1 0  0.05 1 0  0.1 1 0  0.15 1 0  0.2 1 0  0.25 1 0  0.3 1 0  0.35 1 0  0.4 1 0  0.45 1 0  0.5 1 0  0.55 1 0  0.6 1 0  0.65 1 0  0.7 1 0  0.75 1 0  0.8 1 0  0.85 1 0  0.9 1 0  0.95 1 0  1 1 0  </DataArray>
</Points>
<Cells>
[...]
<PointData  Scalars="f_25"> 
<DataArray  type="Float64"  Name="f_25"  format="ascii">0.0000000000000000e+00  0.0000000000000000e+00  0.0000000000000000e+00  0.0000000000000000e+00  0.0000000000000000e+00  0.0000000000000000e+00  0.0000000000000000e+00  0.0000000000000000e+00  0.0000000000000000e+00  0.0000000000000000e+00  0.0000000000000000e+00  0.0000000000000000e+00  0.0000000000000000e+00  0.0000000000000000e+00  0.0000000000000000e+00  0.0000000000000000e+00  0.0000000000000000e+00  0.0000000000000000e+00  0.0000000000000000e+00  0.0000000000000000e+00  0.0000000000000000e+00  0.0000000000000000e+00  4.7087434025886844e-05  1.2192039179347480e-04  2.2968088303738809e-04  3.7508870645675397e-04  5.6159195578614767e-04  7.9071715350489730e-04  1.0615589457137950e-03  1.3704335829382267e-03  1.7107052465341272e-03  2.0727515409242705e-03  2.4439703055506639e-03  2.8086392384677455e-03  3.1473067517472746e-03  3.4351852115061905e-03  3.6386764516129246e-03  3.7085646842167225e-03  3.5672904990037974e-03  3.0853401264778774e-03  2.0359040132390078e-03  0.0000000000000000e+00  0.0000000000000000e+00  1.2192039179347483e-04  3.1151760737488127e-04  5.8266126841144037e-04  9.4735629457690432e-04  1.4142336177018528e-03  1.9870773320192180e-03  2.6635973445591488e-03  3.4345731604967177e-03  4.2834072723846942e-03  5.1860055795777057e-03  6.1107360864409181e-03  7.0179866978774125e-03  7.8585085457629680e-03  8.5692199014629732e-03  9.0643313861459955e-03  9.2183197893004401e-03  8.8350440550170068e-03  7.5934816235528084e-03  4.9540827021591419e-03  0.0000000000000000e+00  0.0000000000000000e+00  2.2968088303738834e-04  5.8266126841144059e-04  1.0847184559288506e-03  1.7580508136735232e-03  2.6185529405561088e-03  3.6731800266153703e-03  4.9177274518916311e-03  6.3352585067611286e-03  7.8952543696537373e-03  9.5533333178251679e-03  1.1251076449039601e-02  1.2915071365923283e-02  1.4453675598534483e-02  1.5749090021144867e-02  1.6640932849188276e-02  1.6895343042017976e-02  1.6150347959571563e-02  1.3823399472352386e-02  8.9605286653282566e-03  0.0000000000000000e+00  0.0000000000000000e+00  3.7508870645675425e-04  9.4735629457690508e-04  1.7580508136735241e-03  2.8427522310461657e-03  4.2269571957438325e-03  5.9218565842038872e-03  7.9207758496446564e-03  1.0196629227800937e-02  1.2700497633966147e-02  1.5361078878719799e-02  1.8084261827416341e-02  2.0751395245240820e-02  2.3213859334647376e-02  2.5280138781183237e-02  2.6689498331882496e-02  2.7063261416281657e-02  2.5820253315696481e-02  2.2037000143354229e-02  1.4226142958043321e-02  0.0000000000000000e+00  0.0000000000000000e+00  5.6159195578614788e-04  1.4142336177018536e-03  2.6185529405561101e-03  4.2269571957438343e-03  6.2770871688280225e-03  8.7855644255590819e-03  1.1742705638648359e-02  1.5108704097385182e-02  1.8811429079892670e-02  2.2745464478385956e-02  2.6771276564450018e-02  3.0712402131627382e-02  3.4347151672723598e-02  3.7389313937720631e-02  3.9449428936511335e-02  3.9964010265852022e-02  3.8074324245836108e-02  3.2428900708868537e-02  2.0875438297787440e-02  0.0000000000000000e+00  0.0000000000000000e+00  7.9071715350489740e-04  1.9870773320192193e-03  3.6731800266153729e-03  5.9218565842038932e-03  8.7855644255590819e-03  1.2287661477774367e-02  1.6414992285494000e-02  2.1112471846090518e-02  2.6279868927671236e-02  3.1770256596446229e-02  3.7388582561648231e-02  4.2887431463298861e-02  4.7955138740921749e-02  5.2188704246047372e-02  5.5040081537007055e-02  5.5718978290271878e-02  5.3027966551845156e-02  4.5096469069815508e-02  2.8969804730946451e-02  0.0000000000000000e+00  0.0000000000000000e+00  1.0615589457137957e-03  2.6635973445591514e-03  4.9177274518916354e-03  7.9207758496446616e-03  1.1742705638648359e-02  1.6414992285494000e-02  2.1920684815445898e-02  2.8187058550827405e-02  3.5081124167114536e-02  4.2407284354446899e-02  4.9905083002355799e-02  5.7243167266336652e-02  6.4003074789278844e-02  6.9642942214813069e-02  7.3426276177138872e-02  7.4294065197355388e-02  7.0649390587708250e-02  6.0012378146239234e-02  3.8490763104765596e-02  0.0000000000000000e+00  0.0000000000000000e+00  1.3704335829382271e-03  3.4345731604967212e-03  6.3352585067611312e-03  1.0196629227800940e-02  1.5108704097385179e-02  2.1112471846090528e-02  2.8187058550827409e-02  3.6240126401951768e-02  4.5101842848098858e-02  5.4521516491742396e-02  6.4164276060567751e-02  7.3602843979734142e-02  8.2296280425937923e-02  8.9543161800151733e-02  9.4390504682588250e-02  9.5471316264366321e-02  9.0732569674990743e-02  7.7001800140830107e-02  4.9325589424867644e-02  0.0000000000000000e+00  0.0000000000000000e+00  1.7107052465341289e-03  4.2834072723846994e-03  7.8952543696537425e-03  1.2700497633966155e-02  1.8811429079892677e-02  2.6279868927671247e-02  3.5081124167114550e-02  4.5101842848098865e-02  5.6132186555137333e-02  6.7861209259624078e-02  7.9872203376277401e-02  9.1631903538738152e-02  1.0246353770450925e-01  1.1148833609440323e-01  1.1751267142301242e-01  1.1882790559548444e-01  1.1287686370450120e-01  9.5724870822050417e-02  6.1255969200317020e-02  0.0000000000000000e+00  0.0000000000000000e+00  2.0727515409242731e-03  5.1860055795777110e-03  9.5533333178251766e-03  1.5361078878719807e-02  2.2745464478385966e-02  3.1770256596446236e-02  4.2407284354446906e-02  5.4521516491742403e-02  6.7861209259624064e-02  8.2051798345415594e-02  9.6589651895422027e-02  1.1082835665603613e-01  1.2394554696683113e-01  1.3487189912700856e-01  1.4215515070497570e-01  1.4372020341748601e-01  1.3647113095199645e-01  1.1566258733000129e-01  7.3948551041990926e-02  0.0000000000000000e+00  0.0000000000000000e+00  2.4439703055506670e-03  6.1107360864409276e-03  1.1251076449039608e-02  1.8084261827416345e-02  2.6771276564450022e-02  3.7388582561648218e-02  4.9905083002355785e-02  6.4164276060567696e-02  7.9872203376277387e-02  9.6589651895422013e-02  1.1372407753738804e-01  1.3051269174302305e-01  1.4598272187445260e-01  1.5886746249262401e-01  1.6744666612072212e-01  1.6926637641026815e-01  1.6067611077945049e-01  1.3610086633607918e-01  8.6944014289823485e-02  0.0000000000000000e+00  0.0000000000000000e+00  2.8086392384677476e-03  7.0179866978774177e-03  1.2915071365923290e-02  2.0751395245240816e-02  3.0712402131627372e-02  4.2887431463298833e-02  5.7243167266336610e-02  7.3602843979734087e-02  9.1631903538738096e-02  1.1082835665603609e-01  1.3051269174302299e-01  1.4980758547861844e-01  1.6759150379616064e-01  1.8240193900803517e-01  1.9225275873307293e-01  1.9431523508093781e-01  1.8439347956048857e-01  1.5610297295893139e-01  9.9638388269829403e-02  0.0000000000000000e+00  0.0000000000000000e+00  3.1473067517472767e-03  7.8585085457629732e-03  1.4453675598534495e-02  2.3213859334647379e-02  3.4347151672723585e-02  4.7955138740921721e-02  6.4003074789278774e-02  8.2296280425937812e-02  1.0246353770450917e-01  1.2394554696683110e-01  1.4598272187445255e-01  1.6759150379616064e-01  1.8751155945517148e-01  2.0409706458409960e-01  2.1511301868450378e-01  2.1738151980209164e-01  2.0620301172858549e-01  1.7445478321692237e-01  1.1124678338699905e-01  0.0000000000000000e+00  0.0000000000000000e+00  3.4351852115061922e-03  8.5692199014629749e-03  1.5749090021144874e-02  2.5280138781183230e-02  3.7389313937720617e-02  5.2188704246047338e-02  6.9642942214813028e-02  8.9543161800151691e-02  1.1148833609440321e-01  1.3487189912700853e-01  1.5886746249262398e-01  1.8240193900803511e-01  2.0409706458409965e-01  2.2215055615442605e-01  2.3411525642157682e-01  2.3651807090675558e-01  2.2424045606473195e-01  1.8956030526601686e-01  1.2073549679889974e-01  0.0000000000000000e+00  0.0000000000000000e+00  3.6386764516129259e-03  9.0643313861459955e-03  1.6640932849188279e-02  2.6689498331882482e-02  3.9449428936511322e-02  5.5040081537007027e-02  7.3426276177138872e-02  9.4390504682588250e-02  1.1751267142301236e-01  1.4215515070497570e-01  1.6744666612072204e-01  1.9225275873307301e-01  2.1511301868450389e-01  2.3411525642157704e-01  2.4666381486842101e-01  2.4908302472039301e-01  2.3597807987458799e-01  1.9925696587387060e-01  1.2670422957987176e-01  0.0000000000000000e+00  0.0000000000000000e+00  3.7085646842167220e-03  9.2183197893004349e-03  1.6895343042017962e-02  2.7063261416281632e-02  3.9964010265851974e-02  5.5718978290271844e-02  7.4294065197355347e-02  9.5471316264366266e-02  1.1882790559548444e-01  1.4372020341748601e-01  1.6926637641026815e-01  1.9431523508093790e-01  2.1738151980209178e-01  2.3651807090675575e-01  2.4908302472039326e-01  2.5134554542364174e-01  2.3785828169147527e-01  2.0051313305007554e-01  1.2719795224907876e-01  0.0000000000000000e+00  0.0000000000000000e+00  3.5672904990037961e-03  8.8350440550170016e-03  1.6150347959571550e-02  2.5820253315696453e-02  3.8074324245836060e-02  5.3027966551845100e-02  7.0649390587708222e-02  9.0732569674990687e-02  1.1287686370450120e-01  1.3647113095199651e-01  1.6067611077945054e-01  1.8439347956048865e-01  2.0620301172858563e-01  2.2424045606473206e-01  2.3597807987458813e-01  2.3785828169147530e-01  2.2472137546924495e-01  1.8896930621674721e-01  1.1943381000420629e-01  0.0000000000000000e+00  0.0000000000000000e+00  3.0853401264778748e-03  7.5934816235528014e-03  1.3823399472352371e-02  2.2037000143354198e-02  3.2428900708868495e-02  4.5096469069815466e-02  6.0012378146239179e-02  7.7001800140830065e-02  9.5724870822050417e-02  1.1566258733000132e-01  1.3610086633607921e-01  1.5610297295893150e-01  1.7445478321692245e-01  1.8956030526601700e-01  1.9925696587387071e-01  2.0051313305007565e-01  1.8896930621674723e-01  1.5830229026739098e-01  9.9459424198522633e-02  0.0000000000000000e+00  0.0000000000000000e+00  2.0359040132390061e-03  4.9540827021591375e-03  8.9605286653282445e-03  1.4226142958043302e-02  2.0875438297787412e-02  2.8969804730946423e-02  3.8490763104765569e-02  4.9325589424867644e-02  6.1255969200317027e-02  7.3948551041990981e-02  8.6944014289823568e-02  9.9638388269829445e-02  1.1124678338699913e-01  1.2073549679889978e-01  1.2670422957987182e-01  1.2719795224907884e-01  1.1943381000420632e-01  9.9459424198522675e-02  6.1864524105625304e-02  0.0000000000000000e+00  0.0000000000000000e+00  0.0000000000000000e+00  0.0000000000000000e+00  0.0000000000000000e+00  0.0000000000000000e+00  0.0000000000000000e+00  0.0000000000000000e+00  0.0000000000000000e+00  0.0000000000000000e+00  0.0000000000000000e+00  0.0000000000000000e+00  0.0000000000000000e+00  0.0000000000000000e+00  0.0000000000000000e+00  0.0000000000000000e+00  0.0000000000000000e+00  0.0000000000000000e+00  0.0000000000000000e+00  0.0000000000000000e+00  0.0000000000000000e+00  0.0000000000000000e+00  </DataArray> 
</PointData> 
</Piece>
</UnstructuredGrid>
</VTKFile>