<?xml version="1.0"?>
<VTKFile type="UnstructuredGrid"  version="0.1"  >
<UnstructuredGrid>
<Piece  NumberOfPoints="11884" NumberOfCells="23245">
<Points>
<DataArray  type="Float64"  NumberOfComponents="3"  format="ascii">0 1 0  0 0 0  2 0 0  2 1 0  1.698973864678379 0.5202336643974864 0  1.7 0.5 0  1.698973864678379 0.4797663356025136 0  1.695905988250499 0.4597402959822678 0  1.69082785128001 0.4401273754053283 0  1.683791562324046 0.4211288289773363 0  1.674869323228916 0.4029396074937837 0  1.664152688241455 0.3857463569810415 0  1.651751624538558 0.3697255034555556 0  1.637793383815137 0.355041442554176 0  1.622421196509533 0.3418448526124602 0  1.605792802065392 0.3302711485010498 0  1.588078830311527 0.3204390920858516 0  1.569461050568964 0.3124495735705839 0  1.550130506451744 0.3063845762267591 0  1.530285555500915 0.3023063351343777 0  1.510129833767743 0.3002566985657894 0  1.489870166232257 0.3002566985657894 0  1.469714444499085 0.3023063351343777 0  1.449869493548256 0.3063845762267592 0  1.430538949431036 0.3124495735705839 0  1.411921169688473 0.3204390920858516 0  1.394207197934608 0.3302711485010498 0  1.377578803490467 0.3418448526124602 0  1.362206616184863 0.355041442554176 0  1.348248375461442 0.3697255034555555 0  1.335847311758545 0.3857463569810416 0  1.325130676771084 0.4029396074937838 0  1.316208437675954 0.4211288289773363 0  1.30917214871999 0.4401273754053284 0  1.304094011749501 0.459740295982268 0  1.301026135321621 0.4797663356025136 0  1.3 0.5 0  1.301026135321621 0.5202336643974865 0  1.304094011749501 0.540259704017732 0  1.30917214871999 0.5598726245946716 0  1.316208437675954 0.5788711710226637 0  1.325130676771084 0.5970603925062162 0  1.335847311758545 0.6142536430189585 0  1.348248375461442 0.6302744965444445 0  1.362206616184863 0.6449585574458241 0  1.377578803490467 0.6581551473875398 0  1.394207197934608 0.6697288514989502 0  1.411921169688473 0.6795609079141484 0  1.430538949431036 0.6875504264294161 0  1.449869493548256 0.6936154237732408 0  1.469714444499085 0.6976936648656222 0  1.489870166232258 0.6997433014342106 0  1.510129833767743 0.6997433014342106 0  1.530285555500915 0.6976936648656222 0  1.550130506451744 0.6936154237732408 0  1.569461050568964 0.6875504264294161 0  1.588078830311527 0.6795609079141484 0  1.605792802065392 0.6697288514989502 0  1.622421196509533 0.6581551473875398 0  1.637793383815137 0.644958557445824 0  1.651751624538558 0.6302744965444445 0  1.664152688241455 0.6142536430189585 0  1.674869323228916 0.5970603925062162 0  1.683791562324046 0.5788711710226637 0  1.69082785128001 0.5598726245946716 0  1.695905988250499 0.540259704017732 0  1 0 0  2 0.5 0  1 1 0  1.5 0 0  1.5 1 0  0.5 0 0  0.5 1 0  0 0.5 0  0.5 0.5 0  0.8979451520621882 0.3979451520621882 0  0 0.25 0  0.25 0 0  0.25 1 0  0 0.75 0  0.7708303839752197 0.7291696160247803 0  1.060487450065458 0.7155911983023616 0  0.75 0 0  0.2916666666666666 0.7083333333333334 0  0.375 0.25 0  0.6539539170268753 0.2621808755403131 0  1.25 1 0  1.25 0 0  1.75 1 0  1.75 0 0  1.112692937705768 0.2409594089613299 0  2 0.25 0  2 0.75 0  0.75 1 0  0.5303804697827851 0.7387138031161185 0  0.2464080459770115 0.4633620689655173 0  0.8553918969027863 0.187291729613026 0  1.085402918473043 0.5024315416394216 0  0.7023836171233588 0.4622733382543529 0  1.79160099748236 0.20839900251764 0  1.794877707231097 0.780302162265984 0  0.1875 0.1875 0  1.240861390876714 0.8018603484044563 0  1.375 0.1361568683804299 0  1.625 0.86384313161957 0  0.3942533393944628 0.8552952337658599 0  0.1309523809523809 0.625 0  1.866695531309557 0.375 0  1.625 0.133304468690443 0  0.9135340366856546 0.5903783721812751 0  0.875 0.8733978721656475 0  0.1614583333333333 0.8385416666666667 0  1.861691627266289 0.6139916217495461 0  0.625 1 0  1.375 1 0  0 0.375 0  0.6460409596115246 0.6189475511056312 0  1.427950053189037 0.8505991009566451 0  1.096547023637989 0.8718968415867947 0  0.6548710671350823 0.8414074186700786 0  0.625 0 0  0.518434142412921 0.1654670712064605 0  2 0.875 0  2 0.125 0  0.4227838789699086 0.631117212303242 0  1.174244366048091 0.6208518683223968 0  0.9150745817949225 0.7347211404405644 0  0.5833057533781096 0.3851874285470316 0  1.264198615263525 0.2394969012883426 0  0.2478918251154796 0.3188245246535611 0  1.171670737509109 0.3792751658987548 0  0.375 0 0  0.3848106957971396 0.4013446521014302 0  1.875 1 0  1.875 0 0  0.7226771605697627 0.1386736503906993 0  0.7866686533598989 0.3107989547626397 0  1.187322699694695 0.1238851689280521 0  1.033847294562251 0.3745258129875347 0  0.7787025857173402 0.5945049320634191 0  0.9978707442331234 0.1478278840777184 0  0.125 0 0  0 0.125 0  0.3125 0.125 0  0.5252859400442395 0.8705307571577421 0  0.1336939659884776 0.3899285918080404 0  0.9473047687541473 0.278349495709411 0  1.500408963266212 0.1705744589102492 0  2 0.625 0  1.125 0 0  0.875 1 0  1.625 0 0  2 0.375 0  0 0.625 0  0.375 1 0  1.375 0 0  0.875 0 0  1.625 1 0  0.125 1 0  0 0.875 0  1.125 1 0  0.2515394088669951 0.589080459770115 0  0.4960860242731235 0.2915019977398662 0  1.3125 0.8978367996372491 0  1.879600142406784 0.4948183868835845 0  0.1373590039176865 0.507523027663466 0  1.875396467257815 0.8753964672578145 0  0.2753984013887208 0.8810651239696262 0  0.3583608519767832 0.5237399493056075 0  0.8178212500450106 0.4837871725870475 0  0.9854859025398142 0.8301972025150728 0  0.4171881142387189 0.7443095678473082 0  1.877937327755065 0.1220626722449352 0  1.740177034599891 0.8835609549694374 0  0.5334847941946562 0.6080147451808329 0  0.6591734692896026 0.7298314625966634 0  0.7608262314608485 0.8856790900669238 0  1.680188243488547 0.2411164862966956 0  1.764155555865517 0.3209946268764028 0  1.679625115443943 0.7604306959570221 0  0.423854184605871 0.1025520923029355 0  0.1800595238095238 0.7269345238095238 0  0.9700685320813959 0.4889505185160206 0  1.028868423077302 0.603859395304676 0  1.192850367067706 0.514357715613352 0  1.888680779705458 0.2648655293601784 0  1.773249043438072 0.1037107182006467 0  1.762997493137722 0.6709182956913284 0  0.1128401347701896 0.2760204043105687 0  1.891122068382689 0.7223913117634155 0  0.6151273515693181 0.1106910846263306 0  0.8163099567485405 0.08852785149487553 0  0.6021957829210146 0.4865224613743478 0  0.6939668469296923 0.3584033933047285 0  1.257597909079549 0.6929379047209219 0  1.348579096223659 0.7718237852801478 0  1.529766295043803 0.8082523174852182 0  1.140797873790022 0.7793759321223492 0  1.200788012206832 0.9029891867672667 0  0.4838218861545398 0.3903625705092696 0  0.28125 0.21875 0  0.109375 0.109375 0  0.21875 0.09375 0  0.8454916105431659 0.6659717096016988 0  1.087613635217926 0.09642676582788327 0  1.535752578405105 0.9073658622369019 0  0.9375 0.07302905065868745 0  1.785607914082173 0.4260509875683541 0  1.582341568352376 0.2175849061081068 0  1.283468886058964 0.09473070143016181 0  1.36303112168044 0.234394560524008 0  1.793128428267754 0.5449056235020647 0  1.456359269732076 0.0853923511783965 0  0.07073252688172042 0.8125 0  0.0924753097241701 0.9078102849914793 0  0.1875 0.9292674731182796 0  0.7682628706575021 0.21968392479392 0  1.689066235663035 0.06812089822275402 0  1.5625 0.06665223434522151 0  0.08629472740800861 0.7093098958333333 0  0.2427141098421804 0.7947306254498873 0  0.06546244851676387 0.5625 0  0.4527178439403957 0.9235617251706857 0  0.3374124502762502 0.7856867496593305 0  0.07244843346474747 0.1935015593614702 0  0.8407804668618366 0.7883804554219618 0  0.9375 0.9366989360828237 0  0.6875 0.9364081484450741 0  1.935253831461142 0.5641138319037696 0  1.937429315865514 0.1875 0  1.8125 0.9374987385085876 0  1.928483711053007 0.8035419783483723 0  0.3373417044517646 0.6093653262207313 0  0.7750283570698374 0.4021943662398121 0  2 0.9375 0  0.6018261377893155 0.9147146521504367 0  0.9815243403789714 0.6775971578925968 0  0.07158461019770647 0.4507186710011561 0  1.9375 0 0  1.019104713029961 0.9094058851236668 0  2 0.4375 0  0.6875 0 0  1.02397197994164 0.2329956872895971 0  1.255657062746488 0.3343568140182954 0  1.180051781529707 0.2939695540071484 0  1.104388962334581 0.3296004014243565 0  0.5838265869155305 0.6745968436379023 0  0.7146317133040128 0.667043650085112 0  0.6677533729490804 0.5382877110744301 0  0.5049359339735974 0.08321048302766 0  0.4351540067928767 0.1881135099931097 0  0.5680402441708845 0.2392618820870165 0  0.4656673263165335 0.8121901425102644 0  1.718985137717654 0.1671759310717096 0  1.4375 1 0  0.8715287402118453 0.3170588502721854 0  1.672621580189108 0.931921565809785 0  1.060804454073283 0.7976432689785894 0  1.141028618294955 0.6966341993197843 0  0.8125 1 0  0.5981616234114435 0.7833497566089633 0  0.732195309431751 0.8052745174117424 0  0.3353506138687095 0.3285605215423964 0  0.4182766006288239 0.3211273960747205 0  0.3028379014737833 0.4038516057317523 0  1.456768288899456 0.7763140225372908 0  1.389370295940228 0.9210094415426482 0  1.598162164902742 0.7638673233440213 0  1.933347765654778 0.3310436398456734 0  0.6541421681647213 0.181412141624312 0  0.2268832101806239 0.6637546182266011 0  0.3125 1 0  0.346623148702668 0.9225911511773774 0  1.231253662158137 0.4304167521341539 0  0.0625 0 0  0.7508992867264177 0.5224119450006208 0  0.9892104547763173 0.7537490673206489 0  0.8943342175527331 0.4748890995358561 0  0.4356369246019441 0.5503912432142598 0  0.4191554228232365 0.4728221873796772 0  0.3643745672810942 0.6818651672780586 0  0.489149578067618 0.6723481040184091 0  1.188122303811521 0.2067186239145147 0  1.304029865240875 0.1711332983515724 0  1.427007907485215 0.1923412646022086 0  1.074055283951396 0.173221612474465 0  1.101214724205108 0.4217149349018773 0  0 0.3125 0  0.07197179300639558 0.34236541773817 0  1.235527625173731 0.5766864619018883 0  1.133524648448154 0.5588651314280451 0  0.9352335932234221 0.1986171423824196 0  1.015262196477668 0.07414910731327649 0  1.033045060636793 0.4502679987366521 0  1.864144619093824 0.1953639772769931 0  1.922397783935594 0
[...]
<PointData  Scalars="f_86464"> 
<DataArray  type="Float64"  Name="f_86464"  format="ascii">0.0000000000000000e+00  0.0000000000000000e+00  0.0000000000000000e+00  0.0000000000000000e+00  4.5013453500044079e+01  4.6867530004004756e+01  4.5039758833242168e+01  3.9943320776829921e+01  3.3518503506428772e+01  2.7180007321282414e+01  2.1782607683423258e+01  1.7626829992489530e+01  1.4361644842905264e+01  1.1866842032273349e+01  9.8930543310655974e+00  8.3469312637593500e+00  7.1152157446495456e+00  6.1245529527010252e+00  5.3882928308105758e+00  4.8702026129149978e+00  4.4670213521943314e+00  4.2641333101946852e+00  4.1594508680779567e+00  4.2068623616553884e+00  4.3567652514985680e+00  4.5673162287960762e+00  4.8412090699452568e+00  5.2166106896658695e+00  5.6183916132381295e+00  6.0296120347300066e+00  6.4190223632177572e+00  6.8828673404551806e+00  7.1698090668493952e+00  7.4438329317206211e+00  7.6879538275898671e+00  7.8163310943814279e+00  7.8359921939888642e+00  7.8656718961341898e+00  7.7271126556548175e+00  7.5130442326961946e+00  7.1741573915131918e+00  6.8851234199535929e+00  6.4409513002608616e+00  6.0111573368486084e+00  5.6246764772144138e+00  5.2229446438518172e+00  4.8956185649296096e+00  4.5961305568433266e+00  4.3333499214919611e+00  4.2071234379773861e+00  4.1736211849678053e+00  4.2752279507573139e+00  4.4716262153403985e+00  4.8732425011922906e+00  5.3948711804469367e+00  6.1256359039311548e+00  7.1065628528280378e+00  8.3415797819668853e+00  9.9011474457847015e+00  1.1851736180721989e+01  1.4382940810721147e+01  1.7618805067341750e+01  2.1822342511420189e+01  2.7210972856692631e+01  3.3576275550704850e+01  4.0034104077105113e+01  0.0000000000000000e+00  0.0000000000000000e+00  0.0000000000000000e+00  0.0000000000000000e+00  0.0000000000000000e+00  0.0000000000000000e+00  0.0000000000000000e+00  1.2769886407735264e+02  7.7708428492710610e+01  3.7816561692322125e+01  1.2243925051250234e+02  0.0000000000000000e+00  0.0000000000000000e+00  1.2236093094542989e+02  4.7711296305625247e+01  2.1376341900246242e+01  0.0000000000000000e+00  9.5970344133230029e+01  8.5158009857008054e+01  5.8611097586429352e+01  0.0000000000000000e+00  0.0000000000000000e+00  0.0000000000000000e+00  0.0000000000000000e+00  1.6252200708142873e+01  0.0000000000000000e+00  0.0000000000000000e+00  0.0000000000000000e+00  7.0623045568562219e+01  1.0303612864292549e+02  3.3989873537649913e+01  2.0561894942259375e+01  5.7451608007312821e+01  1.3401579093650295e+00  1.7018894458406821e+00  9.5594870813512458e+01  7.5495865512994591e+00  2.3418894865033506e+00  3.4578287801870006e-01  6.5722165789306175e+01  1.1408539390090829e+02  1.8377982702355588e+01  3.3704676927155819e-01  3.6338771001070647e+01  2.4869510991605466e+01  9.2185125021013093e+01  2.0480113738941789e+01  0.0000000000000000e+00  0.0000000000000000e+00  1.2718487492603134e+02  6.2701471561669415e+01  1.6591356440019480e+00  1.1816802277314810e+01  4.6677302141705326e+01  0.0000000000000000e+00  5.9752238217162372e+01  0.0000000000000000e+00  0.0000000000000000e+00  8.4861608806280088e+01  1.3490132301347707e+01  3.3777679601977319e+01  6.9016687351468079e+01  7.1941473782225405e+00  1.0136349896727344e+02  1.3675886504407986e+01  0.0000000000000000e+00  8.8970009546092001e+01  0.0000000000000000e+00  0.0000000000000000e+00  3.7631445084472311e+01  4.7594991451081945e+01  7.3996044583204430e+00  2.4807270204924166e+01  4.9647425563039199e+01  1.9299625484792163e+01  0.0000000000000000e+00  9.6261423986283020e+01  6.6732848795310076e+01  5.0526696497772328e+01  1.1397976846889883e+02  3.1259939450202424e+01  1.0226791916856162e+00  0.0000000000000000e+00  0.0000000000000000e+00  0.0000000000000000e+00  0.0000000000000000e+00  0.0000000000000000e+00  1.2716944662077861e+02  0.0000000000000000e+00  0.0000000000000000e+00  0.0000000000000000e+00  0.0000000000000000e+00  0.0000000000000000e+00  9.6121910099601692e+01  0.0000000000000000e+00  1.0233674855799765e+02  7.5655521279708850e+01  2.9078955813309171e+00  3.6682501061285862e+01  1.1396399017191523e+02  3.0137130653283462e-01  6.7639779935990475e+01  9.1856432134388669e+01  4.5955617829432498e+01  2.2083398160872250e+01  8.1387500682296434e+01  2.8749696933483693e-01  1.8720832160404330e-01  7.4033688846583146e+01  5.8518621525134300e+01  3.0054518779685004e+01  1.9000033907015403e+00  8.6926586049731114e+00  1.8464616499098341e+00  4.9508316853769010e+01  1.0611823047640559e+02  3.1033066468572279e+01  2.5359597712337784e+01  1.2386799839958369e+01  4.5994746042815153e+00  1.4847014970345410e-01  9.6953329951575054e+00  1.1302644090570314e+02  5.5876842104520836e+00  3.8779387269713943e+01  2.1413879669899373e+01  6.7488369675872690e+01  5.7684540807116186e+01  8.1374053634528458e+00  3.9639325780452723e+00  9.1991267773460161e-01  1.3710140781808994e+01  5.5939234964964282e+00  7.8997004673309888e+01  9.1245625088653412e+01  7.8853057877921017e+01  6.1437456148886191e+01  4.2295170562298161e+01  9.7113849908440137e+00  4.6266740908210108e-01  1.3027420286346898e+01  2.9259611877974223e+01  1.0051757897776958e+00  3.3145169631948401e+00  3.6152340734934030e+00  3.5732551291766448e+01  8.2734268614673623e-01  1.0702888140532012e+02  7.1670627133444867e+01  5.1053926815298283e+01  4.4679767732585226e+01  1.0959981453547871e-01  2.7381250200614693e-01  1.1639675057264972e+02  9.3090491597816424e+01  1.2105600199977094e+02  3.7018410796710917e+01  8.5056541138072177e+01  1.0808242156989941e+02  3.7433703593319876e+01  1.1390828733911183e+01  2.0917915465061331e+01  2.9351351656903262e+01  1.3690618996296355e+00  6.5071422753425368e-02  1.5804259384854478e+00  9.3619710716226862e+01  5.0004800171037473e+01  0.0000000000000000e+00  3.1914092482710370e+01  2.9053988040221359e+01  1.2048924194131962e+02  0.0000000000000000e+00  1.2053787079957809e+01  0.0000000000000000e+00  0.0000000000000000e+00  2.2895165112854102e+01  8.3874836913050004e+00  1.2531347897961378e+01  1.8435968685145816e+01  6.8025451966077313e+01  5.5195387877532241e+01  6.0906960111137955e+01  3.6767255439360660e+01  7.1680756258171186e+01  6.5317286921271830e+01  6.8695005783394421e+01  4.6495779579824736e-01  0.0000000000000000e+00  3.9452007663974683e+01  1.2139894479585882e-01  1.8619319356017392e+01  1.5337275261650074e+01  0.0000000000000000e+00  6.0197455317986581e+01  4.5394150817932974e+01  9.2897907596471043e+01  8.4427724392667770e+01  9.7179314729262771e+01  1.7441056096243190e+00  1.3106697711511388e+00  1.4105098354936125e+00  1.1852076783166391e+01  5.0556303669109020e+01  1.0387721086037811e+02  0.0000000000000000e+00  4.3859371682312073e+01  9.9623139575323378e+00  0.0000000000000000e+00  5.2620282286872197e+01  2.6355954249796035e+01  3.8375988724626808e+01  8.4086012550201374e+01  8.5778165600130620e+01  8.9686729259688917e+01  7.7505941857656396e+01  1.0438687836480458e+01  4.6037775016752986e+00  1.9894855264129800e+00  1.6133698800419975e+01  1.9169921719457570e+01  1.2589065881805581e+02  1.1949386497306566e+02  9.7083000879803976e+00  1.6619930667612579e+01  2.8318345830949720e+01  1.0210609019732352e+01  2.5131108667602405e+01  1.2898091835388539e+00  2.8538349493158389e+01  7.7864171508954527e-01  6.6510131775862703e+01  5.4709478540448204e+00  1.9132104597184604e+01  0.0000000000000000e+00  1.3945055304638700e+01  0.0000000000000000e+00  1.0820723658395686e+01  6.4997981599941107e-02  3.1053618474414165e+01  1.0601696841598370e+02  1.0103751881619280e+02  2.9575526817734989e+01  4.3199975638720488e+01  2.4690674093832971e+01  2.5751268752276648e+01  6.2651580988696708e+01  7.4009947258071350e+01  1.0836741057357432e+02  5.2499384908278444e+01  4.1207116665725515e+01  1.4749063408443645e+01  2.3387944549198366e+01  1.0959999247046849e+02  7.6644183961355210e+01  8.2294602633458879e+01  3.9664079979880420e+01  4.0022731191251587e+01  0.0000000000000000e+00  0.0000000000000000e+00  6.1543561671647154e+01  3.4988817901667645e+01  7.1927674778519588e+01  1.0986865549622217e+02  0.0000000000000000e+00  3.2555252853904541e+01  1.9176161450411530e-01  2.0073046558239413e-01  0.0000000000000000e+00  3.3670487054720981e+00  1.0834567116417330e+02  5.0900904724437321e+00  5.7110578178548002e+00  9.4232387607694221e+00  4.5312236254768895e-01  5.5247102710673992e+01  4.7268205161011645e+00  3.5625699301467343e+01  1.1471003933634505e+00  7.4607472722375348e-02  1.1967119006128359e+00  3.6039273164920449e-01  2.1827745180040690e+01  5.6523875698642932e+01  2.6052443721402803e+01  0.0000000000000000e+00  4.7514300955862375e+01  6.1441692380951718e+00  0.0000000000000000e+00  9.3119659142333830e+01  6.3325514795283809e+01  0.0000000000000000e+00  5.0580924275949727e+01  4.5512581376579089e+00  1.2036043522417481e+02  6.8438315562502456e+00  4.8768108141957427e+01  0.0000000000000000e+00  6.1403964610987529e+01  1.4301754130907481e+01  1.4736626745528976e+00  5.8802311463183332e-01  2.2243512212178935e+01  5.2485462788747403e+00  4.2836444654581901e-01  2.6040221747823111e+01  4.4664087616537010e+01  7.1564029150349157e+01  7.2895848591922132e+01  7.2642532681198340e+00  0.0000000000000000e+00  9.9133249369006947e+01  1.5822301196983696e-01  9.5572167044323963e-01  3.7318041942578368e+01  5.9675307484022619e+00  1.4919828143200649e+01  0.0000000000000000e+00  0.0000000000000000e+00  0.0000000000000000e+00  0.0000000000000000e+00  0.0000000000000000e+00  1.1413205276841035e+02  0.0000000000000000e+00  1.2760759613362144e+02  1.2759981735354765e+02  0.0000000000000000e+00  0.0000000000000000e+00  0.0000000000000000e+00  1.2586196240697025e+02  1.1401569483126018e+02  0.0000000000000000e+00  0.0000000000000000e+00  0.0000000000000000e+00  0.0000000000000000e+00  0.0000000000000000e+00  0.0000000000000000e+00  0.0000000000000000e+00  0.0000000000000000e+00  0.0000000000000000e+00  0.0000000000000000e+00  0.0000000000000000e+00  0.0000000000000000e+00  5.1180600388016915e+00  6.2939015060826122e+00  2.5438794712126507e+00  1.0745338790363321e+02  7.2013331203872516e-02  3.5928722303074565e+01  1.1788410481608222e+01  3.0570658505227726e+01  9.8233197624814864e+01  4.1462387840966848e+00  2.1011265383724897e+01  3.9858243117936169e+01  9.2393575275869154e+01  3.4252480775881669e+00  2.9613230440327237e-01  4.3646155434185872e+01  8.2551616262685783e+01  6.8840587378348886e+01  2.7920656369255723e+00  1.8049434563011989e+01  6.8167428973941269e-01  6.3107632259330138e-01  3.1024598115994500e+01  3.8994822847923452e+01  4.1917678989107792e+01  3.4448139625812757e+01  3.1892045951954671e+01  5.0127443648464997e+01  2.4345970342804155e+00  1.2775176764233072e+01  2.7640556780611063e+00  7.9622227691625142e+01  2.1475307843793686e+01  7.6595177820419224e+01  4.4708526701754913e+01  3.5896119812647974e+01  2.0832921065692922e+01  1.6470678246618462e+01  1.1936474741742563e+02  9.7340658454633555e+00  6.6273417577770189e+01  2.9413362656344644e+00  5.1521808532616831e+01  1.0533793527349500e+00  3.7874105774359755e+01  4.1890662898149715e+00  2.0814061279159819e+01  7.1660841392607019e-02  2.4149829159616061e+01  1.5270949131416462e+00  1.1115936703504515e+01  1.0564298365991378e+02  9.7204840118023611e+01  7.9169278960234919e+01  2.6553253226495887e+01  3.9092537319732685e+01  8.9187307657439675e+01  1.1533371671006347e+02  7.3397241153672637e+00  7.2943650795142045e-01  1.7223666926946070e+01  2.0911866183647138e+01  6.3556169710425678e+01  8.2686642048346130e+01  5.8308466183061206e+01  9.2904649168797171e+00  3.8771528596762479e+01  8.0091737428629230e+01  7.6902401141887424e+01  8.3891897592715367e+01  7.5869008807217128e+01  1.0015901515859983e+02  1.0094443970963887e+02  1.0954344230317021e+02  1.1257595159424048e+01  9.8422960077890060e+00  5.7606667170030024e+00  5.7666762344332170e+01  1.1968090372688332e+02  2.6549345746750856e+00  6.8362016628610959e+01  5.4721547970677811e+01  5.3400351965970394e+01  6.2327072537678760e+01  6.1726546960251283e-01  6.8591682781418122e+00  1.3165885881209169e+00  7.9636302995742568e+01  3.2098640801546708e+01  1.6055292531490399e+00  4.4170838012918509e+01  1.2706360069542892e+00  3.7569717816357157e-01  6.5804013057935705e+01  3.9523530284043161e+01  1.1722170195845484e+01  2.8728475907115417e+01  2.2233941720122870e+00  8.6081792829066153e+00  1.1945854417504894e+02  1.6197350806010782e+01  1.1393434484730943e+02  6.1757141612782576e+01  8.9815049392924905e+01  2.1511978760932358e+01  6.6147012871012822e-02  1.1515877722187814e+02  1.0675217457149247e+02  7.8426681157917804e+00  8.4213222269413265e+01  2.3832630919917872e+01  1.1608835968539549e+02  5.5607702754808273e+01  5.7846963826721790e+01  5.2923037802840263e+01  5.8630563815177062e+01  1.2928383741069302e+01  2.3708412272242943e-01  1.4019594249345825e+01  4.6231336445757885e+00  5.5510308611461223e-01  6.2654897439053229e+01  6.8832485149162025e+01  7.2638869633723587e+01  1.7740409092381856e+01  1.4239811894217864e+01  4.2901897013019543e+01  4.1797504029185895e+00  9.5582019987035849e+01  8.4577608933534606e+01  2.7887676565294832e+00  2.0892223604647156e-01  9.0280870143685821e+00  7.7155702621258484e+01  1.0093974685034617e+02  2.0704830758164693e+01  3.9943224370882896e-01  3.7987024203578303e+00  7.0321122004628705e+01  1.3371448028730180e+01  1.5724563767682886e+00  5.9573880970151825e+00  3.4654919168926853e+01  1.0319202842303365e+01  6.2651987611713771e+01  9.9711565961452155e+00  9.7199520792552704e+01  1.0022903190619012e+00  4.7648594609243183e+01  4.5630607791159783e-01  7.7886702447193414e+01  1.8500675321739979e+00  9.2602182492950618e+01  2.2258191688293108e-01  9.8108922965404389e+01  9.7523286666658223e+01  1.9432628013076535e+01  6.0982432198260836e+00  1.0890892845139278e+02  7.3988848129322591e+01  1.0614711976540843e+01  5.2116699313764014e+00  2.8699229521074914e+00  1.9967749217685935e+01  3.4004654126926440e+01  6.4718526732011384e+01  9.3645745742186762e+01  8.1653882835610531e+01  8.6318475743070948e+01  1.0492306644674340e+01  1.2712515812631601e+01  3.9353834464549131e+01  7.7486332988970247e+01  9.8250590479366608e+01  2.7690095331597577e+00  7.1284508050095084e+01  9.3196721343281126e+01  7.4633666510606247e+01  4.3676086133478073e+01  3.5326709849126722e+01  2.8546273478451763e+01  1.1684863552820202e+01  2.8600876429435715e+01  4.5815475998423430e+01  3.5683331867589265e+00  4.4766904500173503e+01  5.2640800632590505e+01  7.0146673827080512e+00  1.4365926265999791e+00  3.3924753945446810e+01  7.6415305328408607e+00  4.1978659149663464e+01  1.1118158265210224e+02  1.1436500789604844e+02  2.7637659191371071e+01  8.4090209117401606e+00  1.5417523581527620e+01  2.4093930187093747e+01  3.3063258896846676e+01  2.3861426045107002e+01  1.4901970423333545e+01  1.7354410217625446e+01  1.0181263914241107e+02  3.5279554167817722e+01  2.7210389187458304e+01  7.2363989512916760e+01  8.9287923043164685e-01  4.3895383752074856e+01  1.5200223076590294e-01  3.2312523560532405e+01  1.6784274309178588e+01  2.1364725256132488e+01  1.4960459889449444e+01  1.9740992483064453e+01  6.5472725311482350e+01  6.1102878876878160e-02  5.6278738008116100e-02  9.8387557784145887e+00  1.0529015671883273e+02  2.2160545808675145e+01  3.8871702040926657e+01  4.6061243963653396e+01  4.1584871594558457e+01  7.7518912514431655e+00  6.0931532242862529e-01  3.4814874468235268e-01  6.7679806805829235e-01  1.0219885965179503e+02  4.9124129513657408e+01  5.0330464086158941e+01  1.1576729032634560e+02  1.8165939579341458e+01  3.4776624583385377e+01  2.8164477074462972e+00  2.2824472694144839e+00  3.0132041679664534e-01  2.5585499640389195e+00  3.2054480003139957e+01  1.9070214934453684e+01  1.9757517760129321e+01  4.1697354379262058e-02  7.2605019409777984e+00  1.1836909539989419e+02  1.2387336723026043e+02  1.2417612543373377e+02  9.5918025621909550e+01  2.1225425731631436e+01  2.0681943471230259e+01  1.4305868667158855e-01  9.7801403769229029e+00  2.2222980261462595e+01  4.6398771253945455e+01  1.2086463397797885e+02  7.6167866616572582e+01  8.3053931934486997e+01  1.0487246877704895e-01  2.7195128350750348e+01  2.8117595680893618e+01  1.0571955759097532e+01  8.3617603825242597e+01  1.2404861918336512e+02  1.6103348634314055e-01  1.9181723288924779e+01  1.4135066874729429e+00  1.7558156637669612e+01  1.8104737172782809e+01  6.3330743408508326e+01  6.5513684064763268e+01  3.4521768451133660e+01  3.0314509052603227e+00  6.8058000121182821e-02  7.1134689449213317e-01  2.5091563024991372e+00  5.9483830259842108e-01  1.2439543538112731e-01  3.1646605498884935e-02  3.9712566324549323e-02  4.2530308019453251e+01  1.7533274273390020e+01  1.0964576208637361e+02  2.1012791037383508e+01  8.9236210016895399e+01  4.1755625095239751e-01  1.1765107019078934e+01  8.9530536756345114e+01  9.2935023627279392e+01  8.8942233487226673e+01  9.7521596707831009e+01  8.3038832714817179e+00  4.7619490323265119e+01  2.7737866421616186e+01  3.0280492449859405e+01  2.5509975682872206e+01  1.3045911098047254e+01  3.0925387803482558e+01  9.9088613320309227e-01  5.7160345839711224e-01  1.0892668342448779e+01  8.3685032694091284e+00  7.5856574899037756e+00  5.3453423106363530e+01  1.2368673987416062e+02  9.9590532056148575e+00  3.6499379761208253e+01  4.1881082097858862e+00  6.2249362391275213e+01  6.6619705037986520e+01  7.8835084348274663e+01  3.7446306537812831e+01  1.2037051333431705e+01  4.6583978324276725e+00  1.3258010220546520e+01  9.3741997808062692e+01  3.2434062368644954e+00  1.0565617684334580e+02  0.0000000000000000e+00  4.7077592475565140e+01  4.7622684300030244e+01  3.8489037514015862e+01  5.3146692494878667e-01  8.1686074759932026e+01  7.8479999871236785e+01  1.2375741039965744e+01  2.3922424885477738e+00  3.4938163955452751e+01  3.6746405314246296e+01  4.3674356941953953e+01  4.5116826758379469e+00  7.1363959784065258e+01  1.7508651656768142e+00  1.3924773908549359e+00  5.6413951647243337e+01  5.7961478050857437e+01  3.4259236741422313e+01  2.5980249645682601e+01  2.4373342801846295e+01  0.0000000000000000e+00  2.7240040677274834e+01  1.0325084990645612e+02  3.0911963278773687e+01  2.5894555441760350e+01  2.9672314083882306e+01  2.2409029805558216e+01  2.2535749086290156e+01  3.9513765156966771e+00  3.4411340725930719e+00  5.1385516470921324e+01  5.8348119086015600e+01  5.7962409348638467e+01  6.5613585148606446e-01  0.0000000000000000e+00  3.5034147731149602e+01  6.3804147005984653e+01  6.2189827189326579e+01  0.0000000000000000e+00  7.6899847296049573e-01  7.1406506121956426e+01  1.9168183566502046e+00  2.2980196164209157e+00  7.5779477993687522e+01  5.9267836071059904e+01  4.0234781334058987e+01  4.8696526169938537e+01  9.3370145342455046e+01  8.5215572194170122e+01  8.0105187269496540e+01  7.0839300894604406e+01  5.3761024676122226e+01  1.0097521860467891e+02  0.0000000000000000e+00  2.1620689494520698e-01  9.6196272992391613e-02  1.0680737777565663e+02  1.5698909020025168e+01  1.4014126937351900e+01  2.1466617686250647e+01  1.3631871553000410e+01  1.4267947744668378e+01  1.2805314367078093e+01  2.0893046459451972e-01  5.7302803768776876e+01  0.0000000000000000e+00  1.7805247883912127e+01  8.5952419828796167e+01  8.7964665010906316e+01  8.0552948223997589e+01  8.4182455596223235e+01  1.8544193480318896e+00  1.0850221703866163e+00  4.9288980941616565e+01  1.0643563751338101e+02  1.7183580098234030e-01  1.1465162845942260e+02  4.6757444493875971e-01  5.2575169855131257e+01  1.6951488822609058e+01  6.0960017501472677e+01  5.3815829019775016e+01  6.5555451285502386e+01  6.7968128464041826e+01  3.0301808127447256e+01  3.6425449230545328e+00  4.0839130927857639e+01  7.3348280681620590e+00  3.3133511224641012e+01  5.0433934580434098e+01  9.1038642237913181e-01  8.2362569196758297e+00  4.8128054681594797e+01  4.5696960541958425e+01  5.5340117031106587e+01  4.1659645360747000e+01  4.2822702535814003e+01  3.8691939630352429e-01  3.1530365327913653e+01  9.2788971190429905e+01  2.3627677135585785e+01  2.7273766477021098e+01  2.8863880785653688e+01  3.5744841759773958e+00  1.97097475577