<?xml version="1.0"?>
<VTKFile type="UnstructuredGrid"  version="0.1"  >
<UnstructuredGrid>
<Piece  NumberOfPoints="11884" NumberOfCells="23245">
<Points>
<DataArray  type="Float64"  NumberOfComponents="3"  format="ascii">0 1 0  0 0 0  2 0 0  2 1 0  1.698973864678379 0.5202336643974864 0  1.7 0.5 0  1.698973864678379 0.4797663356025136 0  1.695905988250499 0.4597402959822678 0  1.69082785128001 0.4401273754053283 0  1.683791562324046 0.4211288289773363 0  1.674869323228916 0.4029396074937837 0  1.664152688241455 0.3857463569810415 0  1.651751624538558 0.3697255034555556 0  1.637793383815137 0.355041442554176 0  1.622421196509533 0.3418448526124602 0  1.605792802065392 0.3302711485010498 0  1.588078830311527 0.3204390920858516 0  1.569461050568964 0.3124495735705839 0  1.550130506451744 0.3063845762267591 0  1.530285555500915 0.3023063351343777 0  1.510129833767743 0.3002566985657894 0  1.489870166232257 0.3002566985657894 0  1.469714444499085 0.3023063351343777 0  1.449869493548256 0.3063845762267592 0  1.430538949431036 0.3124495735705839 0  1.411921169688473 0.3204390920858516 0  1.394207197934608 0.3302711485010498 0  1.377578803490467 0.3418448526124602 0  1.362206616184863 0.355041442554176 0  1.348248375461442 0.3697255034555555 0  1.335847311758545 0.3857463569810416 0  1.325130676771084 0.4029396074937838 0  1.316208437675954 0.4211288289773363 0  1.30917214871999 0.4401273754053284 0  1.304094011749501 0.459740295982268 0  1.301026135321621 0.4797663356025136 0  1.3 0.5 0  1.301026135321621 0.5202336643974865 0  1.304094011749501 0.540259704017732 0  1.30917214871999 0.5598726245946716 0  1.316208437675954 0.5788711710226637 0  1.325130676771084 0.5970603925062162 0  1.335847311758545 0.6142536430189585 0  1.348248375461442 0.6302744965444445 0  1.362206616184863 0.6449585574458241 0  1.377578803490467 0.6581551473875398 0  1.394207197934608 0.6697288514989502 0  1.411921169688473 0.6795609079141484 0  1.430538949431036 0.6875504264294161 0  1.449869493548256 0.6936154237732408 0  1.469714444499085 0.6976936648656222 0  1.489870166232258 0.6997433014342106 0  1.510129833767743 0.6997433014342106 0  1.530285555500915 0.6976936648656222 0  1.550130506451744 0.6936154237732408 0  1.569461050568964 0.6875504264294161 0  1.588078830311527 0.6795609079141484 0  1.605792802065392 0.6697288514989502 0  1.622421196509533 0.6581551473875398 0  1.637793383815137 0.644958557445824 0  1.651751624538558 0.6302744965444445 0  1.664152688241455 0.6142536430189585 0  1.674869323228916 0.5970603925062162 0  1.683791562324046 0.5788711710226637 0  1.69082785128001 0.5598726245946716 0  1.695905988250499 0.540259704017732 0  1 0 0  2 0.5 0  1 1 0  1.5 0 0  1.5 1 0  0.5 0 0  0.5 1 0  0 0.5 0  0.5 0.5 0  0.8979451520621882 0.3979451520621882 0  0 0.25 0  0.25 0 0  0.25 1 0  0 0.75 0  0.7708303839752197 0.7291696160247803 0  1.060487450065458 0.7155911983023616 0  0.75 0 0  0.2916666666666666 0.7083333333333334 0  0.375 0.25 0  0.6539539170268753 0.2621808755403131 0  1.25 1 0  1.25 0 0  1.75 1 0  1.75 0 0  1.112692937705768 0.2409594089613299 0  2 0.25 0  2 0.75 0  0.75 1 0  0.5303804697827851 0.7387138031161185 0  0.2464080459770115 0.4633620689655173 0  0.8553918969027863 0.187291729613026 0  1.085402918473043 0.5024315416394216 0  0.7023836171233588 0.4622733382543529 0  1.79160099748236 0.20839900251764 0  1.794877707231097 0.780302162265984 0  0.1875 0.1875 0  1.240861390876714 0.8018603484044563 0  1.375 0.1361568683804299 0  1.625 0.86384313161957 0  0.3942533393944628 0.8552952337658599 0  0.1309523809523809 0.625 0  1.866695531309557 0.375 0  1.625 0.133304468690443 0  0.9135340366856546 0.5903783721812751 0  0.875 0.8733978721656475 0  0.1614583333333333 0.8385416666666667 0  1.861691627266289 0.6139916217495461 0  0.625 1 0  1.375 1 0  0 0.375 0  0.6460409596115246 0.6189475511056312 0  1.427950053189037 0.8505991009566451 0  1.096547023637989 0.8718968415867947 0  0.6548710671350823 0.8414074186700786 0  0.625 0 0  0.518434142412921 0.1654670712064605 0  2 0.875 0  2 0.125 0  0.4227838789699086 0.631117212303242 0  1.174244366048091 0.6208518683223968 0  0.9150745817949225 0.7347211404405644 0  0.5833057533781096 0.3851874285470316 0  1.264198615263525 0.2394969012883426 0  0.2478918251154796 0.3188245246535611 0  1.171670737509109 0.3792751658987548 0  0.375 0 0  0.3848106957971396 0.4013446521014302 0  1.875 1 0  1.875 0 0  0.7226771605697627 0.1386736503906993 0  0.7866686533598989 0.3107989547626397 0  1.187322699694695 0.1238851689280521 0  1.033847294562251 0.3745258129875347 0  0.7787025857173402 0.5945049320634191 0  0.9978707442331234 0.1478278840777184 0  0.125 0 0  0 0.125 0  0.3125 0.125 0  0.5252859400442395 0.8705307571577421 0  0.1336939659884776 0.3899285918080404 0  0.9473047687541473 0.278349495709411 0  1.500408963266212 0.1705744589102492 0  2 0.625 0  1.125 0 0  0.875 1 0  1.625 0 0  2 0.375 0  0 0.625 0  0.375 1 0  1.375 0 0  0.875 0 0  1.625 1 0  0.125 1 0  0 0.875 0  1.125 1 0  0.2515394088669951 0.589080459770115 0  0.4960860242731235 0.2915019977398662 0  1.3125 0.8978367996372491 0  1.879600142406784 0.4948183868835845 0  0.1373590039176865 0.507523027663466 0  1.875396467257815 0.8753964672578145 0  0.2753984013887208 0.8810651239696262 0  0.3583608519767832 0.5237399493056075 0  0.8178212500450106 0.4837871725870475 0  0.9854859025398142 0.8301972025150728 0  0.4171881142387189 0.7443095678473082 0  1.877937327755065 0.1220626722449352 0  1.740177034599891 0.8835609549694374 0  0.5334847941946562 0.6080147451808329 0  0.6591734692896026 0.7298314625966634 0  0.7608262314608485 0.8856790900669238 0  1.680188243488547 0.2411164862966956 0  1.764155555865517 0.3209946268764028 0  1.679625115443943 0.7604306959570221 0  0.423854184605871 0.1025520923029355 0  0.1800595238095238 0.7269345238095238 0  0.9700685320813959 0.4889505185160206 0  1.028868423077302 0.603859395304676 0  1.192850367067706 0.514357715613352 0  1.888680779705458 0.2648655293601784 0  1.773249043438072 0.1037107182006467 0  1.762997493137722 0.6709182956913284 0  0.1128401347701896 0.2760204043105687 0  1.891122068382689 0.7223913117634155 0  0.6151273515693181 0.1106910846263306 0  0.8163099567485405 0.08852785149487553 0  0.6021957829210146 0.4865224613743478 0  0.6939668469296923 0.3584033933047285 0  1.257597909079549 0.6929379047209219 0  1.348579096223659 0.7718237852801478 0  1.529766295043803 0.8082523174852182 0  1.140797873790022 0.7793759321223492 0  1.200788012206832 0.9029891867672667 0  0.4838218861545398 0.3903625705092696 0  0.28125 0.21875 0  0.109375 0.109375 0  0.21875 0.09375 0  0.8454916105431659 0.6659717096016988 0  1.087613635217926 0.09642676582788327 0  1.535752578405105 0.9073658622369019 0  0.9375 0.07302905065868745 0  1.785607914082173 0.4260509875683541 0  1.582341568352376 0.2175849061081068 0  1.283468886058964 0.09473070143016181 0  1.36303112168044 0.234394560524008 0  1.793128428267754 0.5449056235020647 0  1.456359269732076 0.0853923511783965 0  0.07073252688172042 0.8125 0  0.0924753097241701 0.9078102849914793 0  0.1875 0.9292674731182796 0  0.7682628706575021 0.21968392479392 0  1.689066235663035 0.06812089822275402 0  1.5625 0.06665223434522151 0  0.08629472740800861 0.7093098958333333 0  0.2427141098421804 0.7947306254498873 0  0.06546244851676387 0.5625 0  0.4527178439403957 0.9235617251706857 0  0.3374124502762502 0.7856867496593305 0  0.07244843346474747 0.1935015593614702 0  0.8407804668618366 0.7883804554219618 0  0.9375 0.9366989360828237 0  0.6875 0.9364081484450741 0  1.935253831461142 0.5641138319037696 0  1.937429315865514 0.1875 0  1.8125 0.9374987385085876 0  1.928483711053007 0.8035419783483723 0  0.3373417044517646 0.6093653262207313 0  0.7750283570698374 0.4021943662398121 0  2 0.9375 0  0.6018261377893155 0.9147146521504367 0  0.9815243403789714 0.6775971578925968 0  0.07158461019770647 0.4507186710011561 0  1.9375 0 0  1.019104713029961 0.9094058851236668 0  2 0.4375 0  0.6875 0 0  1.02397197994164 0.2329956872895971 0  1.255657062746488 0.3343568140182954 0  1.180051781529707 0.2939695540071484 0  1.104388962334581 0.3296004014243565 0  0.5838265869155305 0.6745968436379023 0  0.7146317133040128 0.667043650085112 0  0.6677533729490804 0.5382877110744301 0  0.5049359339735974 0.08321048302766 0  0.4351540067928767 0.1881135099931097 0  0.5680402441708845 0.2392618820870165 0  0.4656673263165335 0.8121901425102644 0  1.718985137717654 0.1671759310717096 0  1.4375 1 0  0.8715287402118453 0.3170588502721854 0  1.672621580189108 0.931921565809785 0  1.060804454073283 0.7976432689785894 0  1.141028618294955 0.6966341993197843 0  0.8125 1 0  0.5981616234114435 0.7833497566089633 0  0.732195309431751 0.8052745174117424 0  0.3353506138687095 0.3285605215423964 0  0.4182766006288239 0.3211273960747205 0  0.3028379014737833 0.4038516057317523 0  1.456768288899456 0.7763140225372908 0  1.389370295940228 0.9210094415426482 0  1.598162164902742 0.7638673233440213 0  1.933347765654778 0.3310436398456734 0  0.6541421681647213 0.181412141624312 0  0.2268832101806239 0.6637546182266011 0  0.3125 1 0  0.346623148702668 0.9225911511773774 0  1.231253662158137 0.4304167521341539 0  0.0625 0 0  0.7508992867264177 0.5224119450006208 0  0.9892104547763173 0.7537490673206489 0  0.8943342175527331 0.4748890995358561 0  0.4356369246019441 0.5503912432142598 0  0.4191554228232365 0.4728221873796772 0  0.3643745672810942 0.6818651672780586 0  0.489149578067618 0.6723481040184091 0  1.188122303811521 0.2067186239145147 0  1.304029865240875 0.1711332983515724 0  1.427007907485215 0.1923412646022086 0  1.074055283951396 0.173221612474465 0  1.101214724205108 0.4217149349018773 0  0 0.3125 0  0.07197179300639558 0.34236541773817 0  1.235527625173731 0.5766864619018883 0  1.133524648448154 0.5588651314280451 0  0.9352335932234221 0.1986171423824196 0  1.015262196477668 0.07414910731327649 0  1.033045060636793 0.4502679987366521 0  1.864144619093824 0.1953639772769931 0  1.922397783935594 0
[...]
<PointData  Scalars="f_86464"> 
<DataArray  type="Float64"  Name="f_86464"  format="ascii">0.0000000000000000e+00  0.0000000000000000e+00  0.0000000000000000e+00  0.0000000000000000e+00  4.4776847032918724e+01  4.6612663090798520e+01  4.4803075829056930e+01  3.9752104065022934e+01  3.3373489548599778e+01  2.7063063590590161e+01  2.1670115950504382e+01  1.7498737797289159e+01  1.4204300391467244e+01  1.1670583381478403e+01  9.6490241932818819e+00  8.0452430705612592e+00  6.7433808385744438e+00  5.6674965967460249e+00  4.8292830531182149e+00  4.1880887926943879e+00  3.6391790945658435e+00  3.2630623170581572e+00  2.9581863067719416e+00  2.7751486872181625e+00  2.6668947177529483e+00  2.5957664198664263e+00  2.5712116512142669e+00  2.6338694629215302e+00  2.7214368368405291e+00  2.8279574707902557e+00  2.9335279054872427e+00  3.1276072748820014e+00  3.2002112054100298e+00  3.2968417944147399e+00  3.4040024506656414e+00  3.4528313295990869e+00  3.4499946852667156e+00  3.4941453418335664e+00  3.4373241192017030e+00  3.3553998575367467e+00  3.2051387541596128e+00  3.1307591681811089e+00  2.9539549798211504e+00  2.8133804235901558e+00  2.7288017220218159e+00  2.6411576721742147e+00  2.6236621690815851e+00  2.6251250094877521e+00  2.6455728545169488e+00  2.7761461274134009e+00  2.9730089049961084e+00  3.2752267592780706e+00  3.6444840156647662e+00  4.1922447040878108e+00  4.8362294856852452e+00  5.6692949446808623e+00  6.7351535252874379e+00  8.0396900998742726e+00  9.6572258542945200e+00  1.1655296213874420e+01  1.4225606239052592e+01  1.7490095186278822e+01  2.1709462785098818e+01  2.7093224479503956e+01  3.3430350498641623e+01  3.9841966467606412e+01  0.0000000000000000e+00  0.0000000000000000e+00  0.0000000000000000e+00  0.0000000000000000e+00  0.0000000000000000e+00  0.0000000000000000e+00  0.0000000000000000e+00  1.1514333030481104e+02  6.5148948033923787e+01  2.5770435000798550e+01  1.1129677504727705e+02  0.0000000000000000e+00  0.0000000000000000e+00  1.1123010869396150e+02  3.6228898206845408e+01  1.1858972293039363e+01  0.0000000000000000e+00  8.4198742152590910e+01  7.3986560243862186e+01  4.7215763268968374e+01  0.0000000000000000e+00  0.0000000000000000e+00  0.0000000000000000e+00  0.0000000000000000e+00  8.2923987729381174e+00  0.0000000000000000e+00  0.0000000000000000e+00  0.0000000000000000e+00  5.9251311475092415e+01  9.0490635652310530e+01  2.4486042553439312e+01  1.0859142146112980e+01  4.4917464259252597e+01  1.2661429458833671e+00  1.6278283214898137e+00  8.5969428333344595e+01  3.0590227121834830e+00  7.8900583613648256e-01  1.4899502421580579e-01  5.7653250533032001e+01  1.0171978604809621e+02  1.8257759107525231e+01  1.4351924601660349e-01  2.4360807190222641e+01  1.7727857073187270e+01  8.3476819613826152e+01  2.0343116589760232e+01  0.0000000000000000e+00  0.0000000000000000e+00  1.1482112894417635e+02  5.0303672334435660e+01  5.4196687152555767e-01  6.2799919814684335e+00  3.8026528636707809e+01  0.0000000000000000e+00  5.0846104502368185e+01  0.0000000000000000e+00  0.0000000000000000e+00  7.2511835019887570e+01  6.0863333891436282e+00  2.2795349836080327e+01  5.6601777508208528e+01  2.7843376188543156e+00  8.9319848621320347e+01  6.2004838092134058e+00  0.0000000000000000e+00  7.6513900927655399e+01  0.0000000000000000e+00  0.0000000000000000e+00  2.9790769563953283e+01  3.5667646348009470e+01  3.3376654688439289e+00  1.4265710198821539e+01  3.7239750455308148e+01  1.1931724233811188e+01  0.0000000000000000e+00  8.9090736693700649e+01  5.9534118759387852e+01  4.3108196975093477e+01  1.0155992667898693e+02  2.0327313135217771e+01  3.4528654149979748e-01  0.0000000000000000e+00  0.0000000000000000e+00  0.0000000000000000e+00  0.0000000000000000e+00  0.0000000000000000e+00  1.1480701022796167e+02  0.0000000000000000e+00  0.0000000000000000e+00  0.0000000000000000e+00  0.0000000000000000e+00  0.0000000000000000e+00  8.8964224482407388e+01  0.0000000000000000e+00  8.9861993357391682e+01  6.3867380678797481e+01  1.0581755564468169e+00  3.6326256032066105e+01  1.0140785270012350e+02  2.7261217593707959e-01  6.0740876375018054e+01  7.9303068136313200e+01  3.3523254699897400e+01  1.3848468499503639e+01  7.0119139278796354e+01  2.5970890535928448e-01  1.1658750658029224e-01  6.1600644850617030e+01  4.7007378922915052e+01  2.3352918236292055e+01  1.7194997917408736e+00  8.5999552144615663e+00  1.6655536036509471e+00  4.3399849468867018e+01  9.4594908843595249e+01  1.9462328701302834e+01  1.4680884507198211e+01  5.3859986886605977e+00  4.5540432843637086e+00  9.8010881389076751e-02  9.6026978773813934e+00  1.0146019422727318e+02  5.5399087196163848e+00  3.2243410617759530e+01  1.6074775108090066e+01  5.4930998800314086e+01  4.5383350770280593e+01  3.1641577646909189e+00  1.3561342426233327e+00  3.5156357357132900e-01  6.6651179322282186e+00  2.4669636131749821e+00  6.6567992768007613e+01  8.0741279849780014e+01  7.2426699504326777e+01  5.5809610800526400e+01  3.0307129580357788e+01  5.2572091003708232e+00  1.5826585537742843e-01  8.7500862317669839e+00  2.9091108059442544e+01  6.1541784322954884e-01  1.2624387925405065e+00  1.2175968716282055e+00  3.5497058248766187e+01  2.7159017506490279e-01  9.7429951430600141e+01  6.6144668306950365e+01  4.6711748657306160e+01  3.4157594242805999e+01  4.5980662875662284e-02  9.5951402475156627e-02  1.0464881334830153e+02  8.2951054482904510e+01  1.0853843757712252e+02  3.2331331624441390e+01  7.4669747717866429e+01  9.8284583831333180e+01  2.7218225863383516e+01  7.6539584592647598e+00  1.6959314179095589e+01  2.9025579798491190e+01  1.3433340047332438e+00  4.1073014913142337e-02  1.5521638746898154e+00  8.1195114775804001e+01  3.7600160202479238e+01  0.0000000000000000e+00  2.6721173583927662e+01  1.8039511505295234e+01  1.0795590318149333e+02  0.0000000000000000e+00  7.2732000420360317e+00  0.0000000000000000e+00  0.0000000000000000e+00  1.3508864249664544e+01  3.2658067839438538e+00  5.6239606411191660e+00  9.4693371512783369e+00  5.5918092958892551e+01  4.3046977771517717e+01  4.8365762994945641e+01  3.1689986947791461e+01  6.2013335013057883e+01  5.4335375380007584e+01  5.9043827863263459e+01  3.5536906326545931e-01  0.0000000000000000e+00  2.7672948098451144e+01  4.9118584364686940e-02  1.0413850437510780e+01  7.3923593195047061e+00  0.0000000000000000e+00  4.9726167022396936e+01  3.5525437584022256e+01  8.0773982197273810e+01  7.2357612333034439e+01  8.4718498914441398e+01  5.9404829422879368e-01  4.3903933164315140e-01  1.0561977935694205e+00  1.1765527203146616e+01  4.1086212273254588e+01  9.1708173803134699e+01  0.0000000000000000e+00  3.9125952365701394e+01  4.0347566127851424e+00  0.0000000000000000e+00  4.0102518495929473e+01  1.6305054311935493e+01  2.6213482697443485e+01  7.1549996716849577e+01  7.3225497236814348e+01  7.7648959646403540e+01  6.5386194668797955e+01  4.6569292603417791e+00  1.6836696665242024e+00  6.4801290064488914e-01  8.8626966535264629e+00  9.8625176323992196e+00  1.1391648850172712e+02  1.0728918716887038e+02  3.9032564997552424e+00  8.0689999479006325e+00  1.8829139726667027e+01  6.2031556705880506e+00  1.4441401930755374e+01  1.2467363684693729e+00  2.8245580775356164e+01  2.5594124965073062e-01  5.4524428662191752e+01  1.9383021824601123e+00  9.8960382235417761e+00  0.0000000000000000e+00  1.3839988624845034e+01  0.0000000000000000e+00  4.6870732318100989e+00  4.4586295008630331e-02  1.9527879541006403e+01  9.3593216845571220e+01  8.9821481500041202e+01  2.0180416750719761e+01  3.0859459228660615e+01  2.0053094667702140e+01  1.5296848222427915e+01  5.0166749883949706e+01  6.1484445021391949e+01  9.6384484880872861e+01  4.0912160220707406e+01  3.0064091039646776e+01  1.0857860866853382e+01  1.6577372478848240e+01  9.7089601941498515e+01  6.7313835878678233e+01  7.3765035292714089e+01  3.5326144845997845e+01  3.6147845662773740e+01  0.0000000000000000e+00  0.0000000000000000e+00  5.7686631117578962e+01  2.6565671125187979e+01  5.9383158496745068e+01  9.7334242369324372e+01  0.0000000000000000e+00  2.1042850661595804e+01  1.7740591876216447e-01  7.3305197639577643e-02  0.0000000000000000e+00  1.4323577851959799e+00  9.7558671012937012e+01  2.4733299187555446e+00  5.6437967886456244e+00  4.2851228823508185e+00  3.1585418213320626e-01  4.6051023207226983e+01  4.6594670362521944e+00  2.3943582835240633e+01  3.8466370928676424e-01  6.2642421674090315e-02  1.1524859371683223e+00  3.0809073187677355e-01  1.7129341823519241e+01  4.4066457342876532e+01  2.2305806439163931e+01  0.0000000000000000e+00  4.3688863377767063e+01  3.2989428716950244e+00  0.0000000000000000e+00  8.0577993115640965e+01  5.3446144029332871e+01  0.0000000000000000e+00  4.2246059503863876e+01  1.6586508778527289e+00  1.0808365291852886e+02  6.6880950240301464e+00  3.6646237209780651e+01  0.0000000000000000e+00  5.7552417722320762e+01  6.5554773154403296e+00  6.4728872689629557e-01  2.2146422491904399e-01  2.2130443970241764e+01  2.0894297291281183e+00  3.7880205386910448e-01  1.5182371745841388e+01  3.2472204230963939e+01  6.0883789986700691e+01  6.0688939150624954e+01  7.1117294867157179e+00  0.0000000000000000e+00  8.6580786797497709e+01  5.9378577878669028e-02  3.1638333051113759e-01  2.8266371446859551e+01  2.4088461302610464e+00  1.1499348201520968e+01  0.0000000000000000e+00  0.0000000000000000e+00  0.0000000000000000e+00  0.0000000000000000e+00  0.0000000000000000e+00  1.0452674437933922e+02  0.0000000000000000e+00  1.1509043644857930e+02  1.1508313425925942e+02  0.0000000000000000e+00  0.0000000000000000e+00  0.0000000000000000e+00  1.1389148723917614e+02  1.0442502594295561e+02  0.0000000000000000e+00  0.0000000000000000e+00  0.0000000000000000e+00  0.0000000000000000e+00  0.0000000000000000e+00  0.0000000000000000e+00  0.0000000000000000e+00  0.0000000000000000e+00  0.0000000000000000e+00  0.0000000000000000e+00  0.0000000000000000e+00  0.0000000000000000e+00  1.7892186970277220e+00  2.3464574749393980e+00  8.6465467164590926e-01  9.4897038504115727e+01  5.7482017586834570e-02  3.2471929930178682e+01  5.7960040776889334e+00  1.9088075614108103e+01  8.5957124912853516e+01  1.9939511087729309e+00  1.7682869526869833e+01  2.8502206643838964e+01  8.0901513819721160e+01  3.3124086106091624e+00  2.7937773029278090e-01  3.1317737898069449e+01  7.4374116849684242e+01  6.1104300975767131e+01  2.4929752718080178e+00  1.7947705294043850e+01  4.5709339866027654e-01  2.1224182975118297e-01  3.0785362247027738e+01  3.8693477208268590e+01  4.1653060147967658e+01  3.4021624247977961e+01  3.1611080956259457e+01  3.9658147327457812e+01  8.2988530271540062e-01  9.1221499586990404e+00  1.1007712021036991e+00  6.8220529239500507e+01  1.4305246389274433e+01  7.0979828307864210e+01  4.1513258434986938e+01  2.4854477006025878e+01  1.3908503395914739e+01  9.5757430304443076e+00  1.0773050260529654e+02  3.9415353774509772e+00  5.3756292361736740e+01  9.8348743636147773e-01  3.9019454929348150e+01  9.4478677051808568e-01  2.5742364460473109e+01  3.9425998769314736e+00  1.1475999861719927e+01  3.2571183576572044e-02  1.3827436316519798e+01  1.4123696609739205e+00  1.1041171270734271e+01  9.4677897610452092e+01  8.8239569323158676e+01  7.2083619473256817e+01  1.9852657041192202e+01  3.1135589345443524e+01  7.6684264305200415e+01  1.0282319475794822e+02  7.2864539238678754e+00  5.0395880535716264e-01  1.7125723042577430e+01  1.1148507160333178e+01  5.1264962627099024e+01  7.3511190023397347e+01  5.0406489367864495e+01  3.6774022209525006e+00  3.2865866652212276e+01  6.7632480654064594e+01  6.5378220865590393e+01  7.1901401773681911e+01  6.5876385809545909e+01  8.9774074853364525e+01  8.9316015865253320e+01  9.7417989075240769e+01  1.1184712920544220e+01  9.7767752440234119e+00  5.7172767562456235e+00  5.0088279887863550e+01  1.0712515624459662e+02  8.7923532167590879e-01  5.5960023683669924e+01  4.4301474067250069e+01  4.1804968376598254e+01  5.0228399443041653e+01  2.8319519864683534e-01  2.5229286689799166e+00  4.2962826686081246e-01  6.7102281259130081e+01  2.0551562178065524e+01  9.2740276185077342e-01  3.1899314897890438e+01  4.4808120650280159e-01  1.2562416384308830e-01  5.4292763407793075e+01  3.2147908809546401e+01  5.0951895293274676e+00  2.5423554447581768e+01  7.8131299277087918e-01  4.1600339214360327e+00  1.0702109419390644e+02  7.7754088372493015e+00  1.0176982695214696e+02  5.4599609588519606e+01  7.8343933021764940e+01  1.8762715043291458e+01  3.1107281205262374e-02  1.0263321163390196e+02  9.4349127510611282e+01  2.9730779701161660e+00  7.1713219212660704e+01  2.1074525117733000e+01  1.0509622118609010e+02  4.3149641658585580e+01  4.5895436068375673e+01  4.0821467002384601e+01  4.8142606546816360e+01  5.7168405173829102e+00  1.2070157032471482e-01  8.1655238299220780e+00  2.4525896967433223e+00  5.3216738694036192e-01  5.0108350140867415e+01  5.6309613858136849e+01  6.0080014336228452e+01  9.3547472547004009e+00  7.3729417881513530e+00  3.2338068636080571e+01  4.0596989911003707e+00  8.7649709636997969e+01  7.2214706302609699e+01  2.7331057688333136e+00  1.0501002254964197e-01  4.4832503168527591e+00  6.4622406187332388e+01  8.8587676051094803e+01  1.7709728319739156e+01  3.2708820616689388e-01  1.2870312343091865e+00  5.8576999217080235e+01  1.3262121742423830e+01  6.0266784563985387e-01  3.4662173727721632e+00  2.8428486051348123e+01  4.5615330913597081e+00  5.6794662704412822e+01  4.2228541598401446e+00  8.5756285508042254e+01  3.5133555370358566e-01  3.5190641183464358e+01  1.6648511389352830e-01  6.5674653983668492e+01  1.2803140982136354e+00  8.1699589060673546e+01  7.5977439421914442e-02  8.5570765998693133e+01  8.5018929222559194e+01  1.9273708122330280e+01  2.1904266441266538e+00  9.8259270987838491e+01  6.1563009542236045e+01  8.1892873835625331e+00  1.8620718913414041e+00  9.5908261663789807e-01  1.9853019286258263e+01  3.1112688621797982e+01  5.8277413486327376e+01  8.3556192224941171e+01  7.2540119084880629e+01  7.5777069935738226e+01  4.3394784531339701e+00  1.0178144947075371e+01  2.7302403003816721e+01  7.1880011920613057e+01  9.0266490467538844e+01  1.2144760393208118e+00  6.0565419151232334e+01  8.5202433543347041e+01  6.8286708846560316e+01  4.0317801514440731e+01  3.5136096640960687e+01  2.8350956075402603e+01  5.0459372640766391e+00  2.1074991767123596e+01  4.2700974224142783e+01  3.5358930980591912e+00  3.2998570280906314e+01  4.0312276646998356e+01  4.4980552201006807e+00  4.7343299934518629e-01  3.3748054735772193e+01  3.1139782823253674e+00  2.9653629291331264e+01  9.9577830619065452e+01  1.0226680207098205e+02  1.9102948598736294e+01  3.3240164475879377e+00  9.8602235017077611e+00  1.5041102709559571e+01  3.0132134986338993e+01  2.3590051746262244e+01  7.0318082493002576e+00  8.6195421355254354e+00  8.9324235857389766e+01  2.3338668969038295e+01  1.7605856025351091e+01  6.0379601396126695e+01  3.6501746004528995e-01  4.1049694172009168e+01  8.1412841734767399e-02  2.3636047217659446e+01  1.3883834174470383e+01  1.6900651744531782e+01  1.2599679921844924e+01  1.6339534912118673e+01  5.7250860851225227e+01  5.4522005354389655e-02  4.8313834893628400e-02  6.9526800094352694e+00  9.2757651145823303e+01  1.2301071345134973e+01  2.8996022000852388e+01  3.4694927804795626e+01  3.2292720272883081e+01  4.9004433278795467e+00  2.0088052003409027e-01  1.1551380531030812e-01  6.0084217359893888e-01  9.2634212271717601e+01  3.6882890586184537e+01  4.4454837804235140e+01  1.0528669800477753e+02  9.1261468558681500e+00  2.4287004596778836e+01  2.7635871840553183e+00  2.2466477442865314e+00  1.1076203781388241e-01  2.5189982844305931e+00  3.1620552592549423e+01  9.9634812579387422e+00  1.1636221075267974e+01  2.2273622617375626e-02  4.1313012271662846e+00  1.0592880073509353e+02  1.1132366346554805e+02  1.1171609641690125e+02  8.3360398531444730e+01  2.1010631882737083e+01  2.0514752371276373e+01  9.7678072979905134e-02  3.9337748394977341e+00  1.9277718919228988e+01  4.0086953326360451e+01  1.0917295995075673e+02  6.6964797618753451e+01  7.2249849554961955e+01  3.7810386855831636e-02  1.7067606188828822e+01  1.7117897450874739e+01  7.8545844737537642e+00  7.5497983233688998e+01  1.1158735119517833e+02  1.2412786263054661e-01  1.0555120861759672e+01  4.6307481593094896e-01  8.9888005929268182e+00  1.2547081651898788e+01  5.1893792249502702e+01  5.5231554786469786e+01  3.4149148458148787e+01  2.9428612146346453e+00  2.6207487439807275e-02  6.9339930937414573e-01  2.4834679730485645e+00  5.6943223482150540e-01  9.8254863554370200e-02  2.0863526196695608e-02  1.9673876385681209e-02  3.5930917682344720e+01  1.1054309858567104e+01  9.7334082278476529e+01  1.1264664522017991e+01  7.6842911054861460e+01  3.2255831874342383e-01  5.0256252483776214e+00  7.7775291275375466e+01  8.0555186889954314e+01  7.6701969327556029e+01  8.5357991305596656e+01  3.6065043087119797e+00  3.5181152103487257e+01  1.6746627222830057e+01  1.9411877827650638e+01  1.5205125690783616e+01  6.0880432734810919e+00  2.3992475110119745e+01  9.7086893743267189e-01  1.8837285490126870e-01  1.0818856247216720e+01  3.3366968869039546e+00  2.8480243321849743e+00  4.2478075042529198e+01  1.1113397178950592e+02  7.9648103288483938e+00  3.6208068337619743e+01  1.4652013826433199e+00  5.0252438579793726e+01  5.7131754575087101e+01  6.8554158412280884e+01  2.5902700438800775e+01  6.8274471335467837e+00  1.9090335135800323e+00  6.4356462680369724e+00  8.1502874243295935e+01  1.1464295994691838e+00  9.3472005544054809e+01  0.0000000000000000e+00  3.7649978926149423e+01  3.6768623740951803e+01  2.9956735505918147e+01  2.5276888498682254e-01  6.9129098252474449e+01  7.1272234954937602e+01  6.5388754493613401e+00  1.9003940508052677e+00  2.3421861492231184e+01  2.4890837653953842e+01  3.1747212409135155e+01  2.7004818715434276e+00  6.0074145757857558e+01  5.9861323897569774e-01  5.2186559278199363e-01  4.3890740506690427e+01  4.5414241743974721e+01  2.2392209227139052e+01  2.3342357019308267e+01  1.3815696208856059e+01  0.0000000000000000e+00  2.4468477771540055e+01  9.0695314775026631e+01  1.9360383720698806e+01  2.5748400178095824e+01  1.8643360796256694e+01  1.3448755843305344e+01  1.3064463441294002e+01  3.7406460472379521e+00  1.1855359358568192e+00  3.9479951119706307e+01  4.6002911741671831e+01  4.6011185947780135e+01  2.2525921685781689e-01  0.0000000000000000e+00  2.3084033419949620e+01  5.1247659712731469e+01  4.9692119258737847e+01  0.0000000000000000e+00  6.1108322643904855e-01  5.9107842091439601e+01  9.2838614303356304e-01  8.8489973154523105e-01  6.5154634433401597e+01  5.0904655820804692e+01  3.5032287882092433e+01  4.1599371546053149e+01  8.0855291117906049e+01  7.3507512895126709e+01  6.8201937870112019e+01  5.8346362458210358e+01  4.1427503766321628e+01  8.9891113470570474e+01  0.0000000000000000e+00  8.9448207014999934e-02  3.6294361947035877e-02  9.8300164853422842e+01  7.4700104953685171e+00  1.3926733559404354e+01  1.1549276784033182e+01  6.4095655875060134e+00  6.6182185177126058e+00  1.2680814865958714e+01  8.5294271381336634e-02  5.1277911828090318e+01  0.0000000000000000e+00  8.9059595173403032e+00  7.4245514387064432e+01  7.5417990553322937e+01  6.8001232251491885e+01  7.1709400879533732e+01  1.5996606060532257e+00  6.0409299137638250e-01  4.4128071473046582e+01  9.7425481232442920e+01  5.8941219661219381e-02  1.0365853532407299e+02  1.6417769126348514e-01  4.0089840834415384e+01  1.6793708937117415e+01  4.9759734823953146e+01  4.4202252679909087e+01  5.4642947442649820e+01  5.5415962706145073e+01  2.4285617526058843e+01  3.2892417494095740e+00  2.8626357995958099e+01  3.0853261902046651e+00  2.3008221144979945e+01  4.2537004933483658e+01  8.7819971567602573e-01  4.2313938860464759e+00  3.9715452018904635e+01  3.6487902834810932e+01  4.4735489072764331e+01  2.9467420107701404e+01  3.1618585424019283e+01  2.1830744150625639e-01  2.1038111109534789e+01  8.0299944625103834e+01  1.3258897374043091e+01  1.6248009116658558e+01  1.7575854280458802e+01  3.4915370690505432e+00  6.83656793374