<?xml version="1.0"?>
<VTKFile type="UnstructuredGrid"  version="0.1"  >
<UnstructuredGrid>
<Piece  NumberOfPoints="441" NumberOfCells="800">
<Points>
<DataArray  type="Float64"  NumberOfComponents="3"  format="ascii">0 0 0  0.05 0 0  0.1 0 0  0.15 0 0  0.2 0 0  0.25 0 0  0.3 0 0  0.35 0 0  0.4 0 0  0.45 0 0  0.5 0 0  0.55 0 0  0.6 0 0  0.65 0 0  0.7 0 0  0.75 0 0  0.8 0 0  0.85 0 0  0.9 0 0  0.95 0 0  1 0 0  0 0.05 0  0.05 0.05 0  0.1 0.05 0  0.15 0.05 0  0.2 0.05 0  0.25 0.05 0  0.3 0.05 0  0.35 0.05 0  0.4 0.05 0  0.45 0.05 0  0.5 0.05 0  0.55 0.05 0  0.6 0.05 0  0.65 0.05 0  0.7 0.05 0  0.75 0.05 0  0.8 0.05 0  0.85 0.05 0  0.9 0.05 0  0.95 0.05 0  1 0.05 0  0 0.1 0  0.05 0.1 0  0.1 0.1 0  0.15 0.1 0  0.2 0.1 0  0.25 0.1 0  0.3 0.1 0  0.35 0.1 0  0.4 0.1 0  0.45 0.1 0  0.5 0.1 0  0.55 0.1 0  0.6 0.1 0  0.65 0.1 0  0.7 0.1 0  0.75 0.1 0  0.8 0.1 0  0.85 0.1 0  0.9 0.1 0  0.95 0.1 0  1 0.1 0  0 0.15 0  0.05 0.15 0  0.1 0.15 0  0.15 0.15 0  0.2 0.15 0  0.25 0.15 0  0.3 0.15 0  0.35 0.15 0  0.4 0.15 0  0.45 0.15 0  0.5 0.15 0  0.55 0.15 0  0.6 0.15 0  0.65 0.15 0  0.7 0.15 0  0.75 0.15 0  0.8 0.15 0  0.85 0.15 0  0.9 0.15 0  0.95 0.15 0  1 0.15 0  0 0.2 0  0.05 0.2 0  0.1 0.2 0  0.15 0.2 0  0.2 0.2 0  0.25 0.2 0  0.3 0.2 0  0.35 0.2 0  0.4 0.2 0  0.45 0.2 0  0.5 0.2 0  0.55 0.2 0  0.6 0.2 0  0.65 0.2 0  0.7 0.2 0  0.75 0.2 0  0.8 0.2 0  0.85 0.2 0  0.9 0.2 0  0.95 0.2 0  1 0.2 0  0 0.25 0  0.05 0.25 0  0.1 0.25 0  0.15 0.25 0  0.2 0.25 0  0.25 0.25 0  0.3 0.25 0  0.35 0.25 0  0.4 0.25 0  0.45 0.25 0  0.5 0.25 0  0.55 0.25 0  0.6 0.25 0  0.65 0.25 0  0.7 0.25 0  0.75 0.25 0  0.8 0.25 0  0.85 0.25 0  0.9 0.25 0  0.95 0.25 0  1 0.25 0  0 0.3 0  0.05 0.3 0  0.1 0.3 0  0.15 0.3 0  0.2 0.3 0  0.25 0.3 0  0.3 0.3 0  0.35 0.3 0  0.4 0.3 0  0.45 0.3 0  0.5 0.3 0  0.55 0.3 0  0.6 0.3 0  0.65 0.3 0  0.7 0.3 0  0.75 0.3 0  0.8 0.3 0  0.85 0.3 0  0.9 0.3 0  0.95 0.3 0  1 0.3 0  0 0.35 0  0.05 0.35 0  0.1 0.35 0  0.15 0.35 0  0.2 0.35 0  0.25 0.35 0  0.3 0.35 0  0.35 0.35 0  0.4 0.35 0  0.45 0.35 0  0.5 0.35 0  0.55 0.35 0  0.6 0.35 0  0.65 0.35 0  0.7 0.35 0  0.75 0.35 0  0.8 0.35 0  0.85 0.35 0  0.9 0.35 0  0.95 0.35 0  1 0.35 0  0 0.4 0  0.05 0.4 0  0.1 0.4 0  0.15 0.4 0  0.2 0.4 0  0.25 0.4 0  0.3 0.4 0  0.35 0.4 0  0.4 0.4 0  0.45 0.4 0  0.5 0.4 0  0.55 0.4 0  0.6 0.4 0  0.65 0.4 0  0.7 0.4 0  0.75 0.4 0  0.8 0.4 0  0.85 0.4 0  0.9 0.4 0  0.95 0.4 0  1 0.4 0  0 0.45 0  0.05 0.45 0  0.1 0.45 0  0.15 0.45 0  0.2 0.45 0  0.25 0.45 0  0.3 0.45 0  0.35 0.45 0  0.4 0.45 0  0.45 0.45 0  0.5 0.45 0  0.55 0.45 0  0.6 0.45 0  0.65 0.45 0  0.7 0.45 0  0.75 0.45 0  0.8 0.45 0  0.85 0.45 0  0.9 0.45 0  0.95 0.45 0  1 0.45 0  0 0.5 0  0.05 0.5 0  0.1 0.5 0  0.15 0.5 0  0.2 0.5 0  0.25 0.5 0  0.3 0.5 0  0.35 0.5 0  0.4 0.5 0  0.45 0.5 0  0.5 0.5 0  0.55 0.5 0  0.6 0.5 0  0.65 0.5 0  0.7 0.5 0  0.75 0.5 0  0.8 0.5 0  0.85 0.5 0  0.9 0.5 0  0.95 0.5 0  1 0.5 0  0 0.55 0  0.05 0.55 0  0.1 0.55 0  0.15 0.55 0  0.2 0.55 0  0.25 0.55 0  0.3 0.55 0  0.35 0.55 0  0.4 0.55 0  0.45 0.55 0  0.5 0.55 0  0.55 0.55 0  0.6 0.55 0  0.65 0.55 0  0.7 0.55 0  0.75 0.55 0  0.8 0.55 0  0.85 0.55 0  0.9 0.55 0  0.95 0.55 0  1 0.55 0  0 0.6 0  0.05 0.6 0  0.1 0.6 0  0.15 0.6 0  0.2 0.6 0  0.25 0.6 0  0.3 0.6 0  0.35 0.6 0  0.4 0.6 0  0.45 0.6 0  0.5 0.6 0  0.55 0.6 0  0.6 0.6 0  0.65 0.6 0  0.7 0.6 0  0.75 0.6 0  0.8 0.6 0  0.85 0.6 0  0.9 0.6 0  0.95 0.6 0  1 0.6 0  0 0.65 0  0.05 0.65 0  0.1 0.65 0  0.15 0.65 0  0.2 0.65 0  0.25 0.65 0  0.3 0.65 0  0.35 0.65 0  0.4 0.65 0  0.45 0.65 0  0.5 0.65 0  0.55 0.65 0  0.6 0.65 0  0.65 0.65 0  0.7 0.65 0  0.75 0.65 0  0.8 0.65 0  0.85 0.65 0  0.9 0.65 0  0.95 0.65 0  1 0.65 0  0 0.7 0  0.05 0.7 0  0.1 0.7 0  0.15 0.7 0  0.2 0.7 0  0.25 0.7 0  0.3 0.7 0  0.35 0.7 0  0.4 0.7 0  0.45 0.7 0  0.5 0.7 0  0.55 0.7 0  0.6 0.7 0  0.65 0.7 0  0.7 0.7 0  0.75 0.7 0  0.8 0.7 0  0.85 0.7 0  0.9 0.7 0  0.95 0.7 0  1 0.7 0  0 0.75 0  0.05 0.75 0  0.1 0.75 0  0.15 0.75 0  0.2 0.75 0  0.25 0.75 0  0.3 0.75 0  0.35 0.75 0  0.4 0.75 0  0.45 0.75 0  0.5 0.75 0  0.55 0.75 0  0.6 0.75 0  0.65 0.75 0  0.7 0.75 0  0.75 0.75 0  0.8 0.75 0  0.85 0.75 0  0.9 0.75 0  0.95 0.75 0  1 0.75 0  0 0.8 0  0.05 0.8 0  0.1 0.8 0  0.15 0.8 0  0.2 0.8 0  0.25 0.8 0  0.3 0.8 0  0.35 0.8 0  0.4 0.8 0  0.45 0.8 0  0.5 0.8 0  0.55 0.8 0  0.6 0.8 0  0.65 0.8 0  0.7 0.8 0  0.75 0.8 0  0.8 0.8 0  0.85 0.8 0  0.9 0.8 0  0.95 0.8 0  1 0.8 0  0 0.85 0  0.05 0.85 0  0.1 0.85 0  0.15 0.85 0  0.2 0.85 0  0.25 0.85 0  0.3 0.85 0  0.35 0.85 0  0.4 0.85 0  0.45 0.85 0  0.5 0.85 0  0.55 0.85 0  0.6 0.85 0  0.65 0.85 0  0.7 0.85 0  0.75 0.85 0  0.8 0.85 0  0.85 0.85 0  0.9 0.85 0  0.95 0.85 0  1 0.85 0  0 0.9 0  0.05 0.9 0  0.1 0.9 0  0.15 0.9 0  0.2 0.9 0  0.25 0.9 0  0.3 0.9 0  0.35 0.9 0  0.4 0.9 0  0.45 0.9 0  0.5 0.9 0  0.55 0.9 0  0.6 0.9 0  0.65 0.9 0  0.7 0.9 0  0.75 0.9 0  0.8 0.9 0  0.85 0.9 0  0.9 0.9 0  0.95 0.9 0  1 0.9 0  0 0.95 0  0.05 0.95 0  0.1 0.95 0  0.15 0.95 0  0.2 0.95 0  0.25 0.95 0  0.3 0.95 0  0.35 0.95 0  0.4 0.95 0  0.45 0.95 0  0.5 0.95 0  0.55 0.95 0  0.6 0.95 0  0.65 0.95 0  0.7 0.95 0  0.75 0.95 0  0.8 0.95 0  0.85 0.95 0  0.9 0.95 0  0.95 0.95 0  1 0.95 0  0 1 0  0.05 1 0  0.1 1 0  0.15 1 0  0.2 1 0  0.25 1 0  0.3 1 0  0.35 1 0  0.4 1 0  0.45 1 0  0.5 1 0  0.55 1 0  0.6 1 0  0.65 1 0  0.7 1 0  0.75 1 0  0.8 1 0  0.85 1 0  0.9 1 0  0.95 1 0  1 1 0  </DataArray>
</Points>
<Cells>
[...]
<PointData  Scalars="f_25"> 
<DataArray  type="Float64"  Name="f_25"  format="ascii">0.0000000000000000e+00  0.0000000000000000e+00  0.0000000000000000e+00  0.0000000000000000e+00  0.0000000000000000e+00  0.0000000000000000e+00  0.0000000000000000e+00  0.0000000000000000e+00  0.0000000000000000e+00  0.0000000000000000e+00  0.0000000000000000e+00  0.0000000000000000e+00  0.0000000000000000e+00  0.0000000000000000e+00  0.0000000000000000e+00  0.0000000000000000e+00  0.0000000000000000e+00  0.0000000000000000e+00  0.0000000000000000e+00  0.0000000000000000e+00  0.0000000000000000e+00  0.0000000000000000e+00  9.3990869320598636e-04  2.3307965367720456e-03  4.1591845444721035e-03  6.3684762298873805e-03  8.8630569666935406e-03  1.1520169076538430e-02  1.4204190852826775e-02  1.6779677626731177e-02  1.9121271335627434e-02  2.1120036699291685e-02  2.2686626357277865e-02  2.3751833677670007e-02  2.4264549252949193e-02  2.4185727060619704e-02  2.3474179066941665e-02  2.2054837938000442e-02  1.9750625486048737e-02  1.6140679778388452e-02  1.0266738511854336e-02  0.0000000000000000e+00  0.0000000000000000e+00  2.3307965367720465e-03  5.7274364702379421e-03  1.0175598062742401e-02  1.5545825316277765e-02  2.1610337175283982e-02  2.8073393645437907e-02  3.4606418220160029e-02  4.0880029043061490e-02  4.6588504961419488e-02  5.1465524769357625e-02  5.5292039167494179e-02  5.7897505629791145e-02  5.9154354147784756e-02  5.8962066043404843e-02  5.7210531115123101e-02  5.3700371275075910e-02  4.7977529686198860e-02  3.9005535562686461e-02  2.4542531765985722e-02  0.0000000000000000e+00  0.0000000000000000e+00  4.1591845444721061e-03  1.0175598062742404e-02  1.8035444624748518e-02  2.7520581702132781e-02  3.8236703600849888e-02  4.9666494611447204e-02  6.1231647376802305e-02  7.2349882169845073e-02  8.2478871939128021e-02  9.1144743868525321e-02  9.7956424996252692e-02  1.0260778847610970e-01  1.0486714358085010e-01  1.0454746659087227e-01  1.0143918794419496e-01  9.5167424898139383e-02  8.4903470673022785e-02  6.8811774263567702e-02  4.3044035129508711e-02  0.0000000000000000e+00  0.0000000000000000e+00  6.3684762298873822e-03  1.5545825316277771e-02  2.7520581702132792e-02  4.1972733411460163e-02  5.8312581678986224e-02  7.5759342338591051e-02  9.3434804087792422e-02  1.1045056877345479e-01  1.2597600598220898e-01  1.3928282153812738e-01  1.4976772629584317e-01  1.5695585378691126e-01  1.6048396094441553e-01  1.6005318515588826e-01  1.5532394908263825e-01  1.4569678695221100e-01  1.2987805222087687e-01  1.0506473978629820e-01  6.5495109418474390e-02  0.0000000000000000e+00  0.0000000000000000e+00  8.8630569666935371e-03  2.1610337175283982e-02  3.8236703600849901e-02  5.8312581678986224e-02  8.1032986291987991e-02  1.0532306364607778e-01  1.2996657118006763e-01  1.5372725926705746e-01  1.7544457136967948e-01  1.9409716065348911e-01  2.0883562607231640e-01  2.1898767675665945e-01  2.2403405836644910e-01  2.2354089916175809e-01  2.1701083023477585e-01  2.0357679173975202e-01  1.8140383986374289e-01  1.4658150207623610e-01  9.1179522844137190e-02  0.0000000000000000e+00  0.0000000000000000e+00  1.1520169076538430e-02  2.8073393645437920e-02  4.9666494611447239e-02  7.5759342338591107e-02  1.0532306364607782e-01  1.3697269357225389e-01  1.6913189267842971e-01  2.0019072229459131e-01  2.2863155947597660e-01  2.5311369924594412e-01  2.7251760213325044e-01  2.8595234265620312e-01  2.9272369877561338e-01  2.9224410097186398e-01  2.8383596572193359e-01  2.6633145870334646e-01  2.3729868340279042e-01  1.9162220470751143e-01  1.1903152877729792e-01  0.0000000000000000e+00  0.0000000000000000e+00  1.4204190852826794e-02  3.4606418220160085e-02  6.1231647376802353e-02  9.3434804087792422e-02  1.2996657118006766e-01  1.6913189267842971e-01  2.0899046166347457e-01  2.4755127828363802e-01  2.8292975609066662e-01  3.1345457084472245e-01  3.3772439608111332e-01  3.5461816109611849e-01  3.6325519773560827e-01  3.6288191915092494e-01  3.5262560672916654e-01  3.3099737385803435e-01  2.9493881958974194e-01  2.3808519603019332e-01  1.4775839040928757e-01  0.0000000000000000e+00  0.0000000000000000e+00  1.6779677626731188e-02  4.0880029043061490e-02  7.2349882169845087e-02  1.1045056877345484e-01  1.5372725926705758e-01  2.0019072229459139e-01  2.4755127828363804e-01  2.9344864009708949e-01  3.3563959971612062e-01  3.7212718008498191e-01  4.0123024985363409e-01  4.2159702868013943e-01  4.3215762724658274e-01  4.3198775296170283e-01  4.2001358839997471e-01  3.9441978875035605e-01  3.5152113599031942e-01  2.8371788286793903e-01  1.7597099037109437e-01  0.0000000000000000e+00  0.0000000000000000e+00  1.9121271335627445e-02  4.6588504961419509e-02  8.2478871939128118e-02  1.2597600598220912e-01  1.7544457136967961e-01  2.2863155947597671e-01  2.8292975609066667e-01  3.3563959971612073e-01  3.8418529269483825e-01  4.2626518465255975e-01  4.5993401421675223e-01  4.8361994943997799e-01  4.9607024896514079e-01  4.9619342762353380e-01  4.8271823166889455e-01  4.5351304966588496e-01  4.0429547601561844e-01  3.2630423687558335e-01  2.0229989507761251e-01  0.0000000000000000e+00  0.0000000000000000e+00  2.1120036699291696e-02  5.1465524769357660e-02  9.1144743868525391e-02  1.3928282153812746e-01  1.9409716065348923e-01  2.5311369924594423e-01  3.1345457084472250e-01  3.7212718008498197e-01  4.2626518465255980e-01  4.7329797412275826e-01  5.1104464200902555e-01  5.3773465760008010e-01  5.5194769910808328e-01  5.5243674198054615e-01  5.3774632145152201e-01  5.0545394479721883e-01  4.5073821223569627e-01  3.6380544122738273e-01  2.2548246040733411e-01  0.0000000000000000e+00  0.0000000000000000e+00  2.2686626357277879e-02  5.5292039167494214e-02  9.7956424996252761e-02  1.4976772629584323e-01  2.0883562607231640e-01  2.7251760213325055e-01  3.3772439608111321e-01  4.0123024985363381e-01  4.5993401421675212e-01  5.1104464200902555e-01  5.5218539084083629e-01  5.8141801007844585e-01  5.9717804300903332e-01  5.9808218046777939e-01  5.8251290600724093e-01  5.4779618184360379e-01  4.8865555964319485e-01  3.9444366943347126e-01  2.4441441986765827e-01  0.0000000000000000e+00  0.0000000000000000e+00  2.3751833677670010e-02  5.7897505629791159e-02  1.0260778847610973e-01  1.5695585378691132e-01  2.1898767675665945e-01  2.8595234265620306e-01  3.5461816109611821e-01  4.2159702868013904e-01  4.8361994943997783e-01  5.3773465760008010e-01  5.8141801007844540e-01  6.1260335163747415e-01  6.2961275256603388e-01  6.3095268281951145e-01  6.1487372201176238e-01  5.7850189524382001e-01  5.1621197921824957e-01  4.1672442837890084e-01  2.5816257958897854e-01  0.0000000000000000e+00  0.0000000000000000e+00  2.4264549252949196e-02  5.9154354147784798e-02  1.0486714358085013e-01  1.6048396094441553e-01  2.2403405836644905e-01  2.9272369877561322e-01  3.6325519773560805e-01  4.3215762724658219e-01  4.9607024896514035e-01  5.5194769910808306e-01  5.9717804300903310e-01  6.2961275256603377e-01  6.4749744359676875e-01  6.4926048366971090e-01  6.3305775256503227e-01  5.9587762306803471e-01  5.3187168161779153e-01  4.2938705796266169e-01  2.6593159705135755e-01  0.0000000000000000e+00  0.0000000000000000e+00  2.4185727060619708e-02  5.8962066043404843e-02  1.0454746659087223e-01  1.6005318515588821e-01  2.2354089916175793e-01  2.9224410097186376e-01  3.6288191915092471e-01  4.3198775296170239e-01  4.9619342762353325e-01  5.5243674198054582e-01  5.9808218046777917e-01  6.3095268281951156e-01  6.4926048366971134e-01  6.5139372613391056e-01  6.3545741453964633e-01  5.9837447336038818e-01  5.3421701868665539e-01  4.3125387356717138e-01  2.6696624268686575e-01  0.0000000000000000e+00  0.0000000000000000e+00  2.3474179066941665e-02  5.7210531115123114e-02  1.0143918794419499e-01  1.5532394908263819e-01  2.1701083023477580e-01  2.8383596572193370e-01  3.5262560672916610e-01  4.2001358839997432e-01  4.8271823166889416e-01  5.3774632145152168e-01  5.8251290600724037e-01  6.1487372201176260e-01  6.3305775256503227e-01  6.3545741453964677e-01  6.2017816299880557e-01  5.8416094683706743e-01  5.2156323117848147e-01  4.2091421075015883e-01  2.6035054067278518e-01  0.0000000000000000e+00  0.0000000000000000e+00  2.2054837938000438e-02  5.3700371275075903e-02  9.5167424898139383e-02  1.4569678695221097e-01  2.0357679173975185e-01  2.6633145870334640e-01  3.3099737385803418e-01  3.9441978875035577e-01  4.5351304966588452e-01  5.0545394479721850e-01  5.4779618184360346e-01  5.7850189524381979e-01  5.9587762306803449e-01  5.9837447336038829e-01  5.8416094683706765e-01  5.5029659540343112e-01  4.9122123445557025e-01  3.9612961384995665e-01  2.4463832936015817e-01  0.0000000000000000e+00  0.0000000000000000e+00  1.9750625486048726e-02  4.7977529686198839e-02  8.4903470673022730e-02  1.2987805222087678e-01  1.8140383986374276e-01  2.3729868340279026e-01  2.9493881958974183e-01  3.5152113599031914e-01  4.0429547601561816e-01  4.5073821223569599e-01  4.8865555964319457e-01  5.1621197921824913e-01  5.3187168161779164e-01  5.3421701868665528e-01  5.2156323117848158e-01  4.9122123445557025e-01  4.3816880173013456e-01  3.5278595772046417e-01  2.1722538781764622e-01  0.0000000000000000e+00  0.0000000000000000e+00  1.6140679778388442e-02  3.9005535562686447e-02  6.8811774263567632e-02  1.0506473978629809e-01  1.4658150207623599e-01  1.9162220470751123e-01  2.3808519603019307e-01  2.8371788286793881e-01  3.2630423687558319e-01  3.6380544122738251e-01  3.9444366943347087e-01  4.1672442837890050e-01  4.2938705796266163e-01  4.3125387356717132e-01  4.2091421075015889e-01  3.9612961384995671e-01  3.5278595772046417e-01  2.8317049636998504e-01  1.7338480791404093e-01  0.0000000000000000e+00  0.0000000000000000e+00  1.0266738511854329e-02  2.4542531765985701e-02  4.3044035129508669e-02  6.5495109418474320e-02  9.1179522844137106e-02  1.1903152877729778e-01  1.4775839040928737e-01  1.7597099037109423e-01  2.0229989507761240e-01  2.2548246040733402e-01  2.4441441986765813e-01  2.5816257958897831e-01  2.6593159705135755e-01  2.6696624268686564e-01  2.6035054067278507e-01  2.4463832936015817e-01  2.1722538781764614e-01  1.7338480791404090e-01  1.0504159020077843e-01  0.0000000000000000e+00  0.0000000000000000e+00  0.0000000000000000e+00  0.0000000000000000e+00  0.0000000000000000e+00  0.0000000000000000e+00  0.0000000000000000e+00  0.0000000000000000e+00  0.0000000000000000e+00  0.0000000000000000e+00  0.0000000000000000e+00  0.0000000000000000e+00  0.0000000000000000e+00  0.0000000000000000e+00  0.0000000000000000e+00  0.0000000000000000e+00  0.0000000000000000e+00  0.0000000000000000e+00  0.0000000000000000e+00  0.0000000000000000e+00  0.0000000000000000e+00  0.0000000000000000e+00  </DataArray> 
</PointData> 
</Piece>
</UnstructuredGrid>
</VTKFile>