<?xml version="1.0"?>
<VTKFile type="UnstructuredGrid"  version="0.1"  >
<UnstructuredGrid>
<Piece  NumberOfPoints="11884" NumberOfCells="23245">
<Points>
<DataArray  type="Float64"  NumberOfComponents="3"  format="ascii">0 1 0  0 0 0  2 0 0  2 1 0  1.698973864678379 0.5202336643974864 0  1.7 0.5 0  1.698973864678379 0.4797663356025136 0  1.695905988250499 0.4597402959822678 0  1.69082785128001 0.4401273754053283 0  1.683791562324046 0.4211288289773363 0  1.674869323228916 0.4029396074937837 0  1.664152688241455 0.3857463569810415 0  1.651751624538558 0.3697255034555556 0  1.637793383815137 0.355041442554176 0  1.622421196509533 0.3418448526124602 0  1.605792802065392 0.3302711485010498 0  1.588078830311527 0.3204390920858516 0  1.569461050568964 0.3124495735705839 0  1.550130506451744 0.3063845762267591 0  1.530285555500915 0.3023063351343777 0  1.510129833767743 0.3002566985657894 0  1.489870166232257 0.3002566985657894 0  1.469714444499085 0.3023063351343777 0  1.449869493548256 0.3063845762267592 0  1.430538949431036 0.3124495735705839 0  1.411921169688473 0.3204390920858516 0  1.394207197934608 0.3302711485010498 0  1.377578803490467 0.3418448526124602 0  1.362206616184863 0.355041442554176 0  1.348248375461442 0.3697255034555555 0  1.335847311758545 0.3857463569810416 0  1.325130676771084 0.4029396074937838 0  1.316208437675954 0.4211288289773363 0  1.30917214871999 0.4401273754053284 0  1.304094011749501 0.459740295982268 0  1.301026135321621 0.4797663356025136 0  1.3 0.5 0  1.301026135321621 0.5202336643974865 0  1.304094011749501 0.540259704017732 0  1.30917214871999 0.5598726245946716 0  1.316208437675954 0.5788711710226637 0  1.325130676771084 0.5970603925062162 0  1.335847311758545 0.6142536430189585 0  1.348248375461442 0.6302744965444445 0  1.362206616184863 0.6449585574458241 0  1.377578803490467 0.6581551473875398 0  1.394207197934608 0.6697288514989502 0  1.411921169688473 0.6795609079141484 0  1.430538949431036 0.6875504264294161 0  1.449869493548256 0.6936154237732408 0  1.469714444499085 0.6976936648656222 0  1.489870166232258 0.6997433014342106 0  1.510129833767743 0.6997433014342106 0  1.530285555500915 0.6976936648656222 0  1.550130506451744 0.6936154237732408 0  1.569461050568964 0.6875504264294161 0  1.588078830311527 0.6795609079141484 0  1.605792802065392 0.6697288514989502 0  1.622421196509533 0.6581551473875398 0  1.637793383815137 0.644958557445824 0  1.651751624538558 0.6302744965444445 0  1.664152688241455 0.6142536430189585 0  1.674869323228916 0.5970603925062162 0  1.683791562324046 0.5788711710226637 0  1.69082785128001 0.5598726245946716 0  1.695905988250499 0.540259704017732 0  1 0 0  2 0.5 0  1 1 0  1.5 0 0  1.5 1 0  0.5 0 0  0.5 1 0  0 0.5 0  0.5 0.5 0  0.8979451520621882 0.3979451520621882 0  0 0.25 0  0.25 0 0  0.25 1 0  0 0.75 0  0.7708303839752197 0.7291696160247803 0  1.060487450065458 0.7155911983023616 0  0.75 0 0  0.2916666666666666 0.7083333333333334 0  0.375 0.25 0  0.6539539170268753 0.2621808755403131 0  1.25 1 0  1.25 0 0  1.75 1 0  1.75 0 0  1.112692937705768 0.2409594089613299 0  2 0.25 0  2 0.75 0  0.75 1 0  0.5303804697827851 0.7387138031161185 0  0.2464080459770115 0.4633620689655173 0  0.8553918969027863 0.187291729613026 0  1.085402918473043 0.5024315416394216 0  0.7023836171233588 0.4622733382543529 0  1.79160099748236 0.20839900251764 0  1.794877707231097 0.780302162265984 0  0.1875 0.1875 0  1.240861390876714 0.8018603484044563 0  1.375 0.1361568683804299 0  1.625 0.86384313161957 0  0.3942533393944628 0.8552952337658599 0  0.1309523809523809 0.625 0  1.866695531309557 0.375 0  1.625 0.133304468690443 0  0.9135340366856546 0.5903783721812751 0  0.875 0.8733978721656475 0  0.1614583333333333 0.8385416666666667 0  1.861691627266289 0.6139916217495461 0  0.625 1 0  1.375 1 0  0 0.375 0  0.6460409596115246 0.6189475511056312 0  1.427950053189037 0.8505991009566451 0  1.096547023637989 0.8718968415867947 0  0.6548710671350823 0.8414074186700786 0  0.625 0 0  0.518434142412921 0.1654670712064605 0  2 0.875 0  2 0.125 0  0.4227838789699086 0.631117212303242 0  1.174244366048091 0.6208518683223968 0  0.9150745817949225 0.7347211404405644 0  0.5833057533781096 0.3851874285470316 0  1.264198615263525 0.2394969012883426 0  0.2478918251154796 0.3188245246535611 0  1.171670737509109 0.3792751658987548 0  0.375 0 0  0.3848106957971396 0.4013446521014302 0  1.875 1 0  1.875 0 0  0.7226771605697627 0.1386736503906993 0  0.7866686533598989 0.3107989547626397 0  1.187322699694695 0.1238851689280521 0  1.033847294562251 0.3745258129875347 0  0.7787025857173402 0.5945049320634191 0  0.9978707442331234 0.1478278840777184 0  0.125 0 0  0 0.125 0  0.3125 0.125 0  0.5252859400442395 0.8705307571577421 0  0.1336939659884776 0.3899285918080404 0  0.9473047687541473 0.278349495709411 0  1.500408963266212 0.1705744589102492 0  2 0.625 0  1.125 0 0  0.875 1 0  1.625 0 0  2 0.375 0  0 0.625 0  0.375 1 0  1.375 0 0  0.875 0 0  1.625 1 0  0.125 1 0  0 0.875 0  1.125 1 0  0.2515394088669951 0.589080459770115 0  0.4960860242731235 0.2915019977398662 0  1.3125 0.8978367996372491 0  1.879600142406784 0.4948183868835845 0  0.1373590039176865 0.507523027663466 0  1.875396467257815 0.8753964672578145 0  0.2753984013887208 0.8810651239696262 0  0.3583608519767832 0.5237399493056075 0  0.8178212500450106 0.4837871725870475 0  0.9854859025398142 0.8301972025150728 0  0.4171881142387189 0.7443095678473082 0  1.877937327755065 0.1220626722449352 0  1.740177034599891 0.8835609549694374 0  0.5334847941946562 0.6080147451808329 0  0.6591734692896026 0.7298314625966634 0  0.7608262314608485 0.8856790900669238 0  1.680188243488547 0.2411164862966956 0  1.764155555865517 0.3209946268764028 0  1.679625115443943 0.7604306959570221 0  0.423854184605871 0.1025520923029355 0  0.1800595238095238 0.7269345238095238 0  0.9700685320813959 0.4889505185160206 0  1.028868423077302 0.603859395304676 0  1.192850367067706 0.514357715613352 0  1.888680779705458 0.2648655293601784 0  1.773249043438072 0.1037107182006467 0  1.762997493137722 0.6709182956913284 0  0.1128401347701896 0.2760204043105687 0  1.891122068382689 0.7223913117634155 0  0.6151273515693181 0.1106910846263306 0  0.8163099567485405 0.08852785149487553 0  0.6021957829210146 0.4865224613743478 0  0.6939668469296923 0.3584033933047285 0  1.257597909079549 0.6929379047209219 0  1.348579096223659 0.7718237852801478 0  1.529766295043803 0.8082523174852182 0  1.140797873790022 0.7793759321223492 0  1.200788012206832 0.9029891867672667 0  0.4838218861545398 0.3903625705092696 0  0.28125 0.21875 0  0.109375 0.109375 0  0.21875 0.09375 0  0.8454916105431659 0.6659717096016988 0  1.087613635217926 0.09642676582788327 0  1.535752578405105 0.9073658622369019 0  0.9375 0.07302905065868745 0  1.785607914082173 0.4260509875683541 0  1.582341568352376 0.2175849061081068 0  1.283468886058964 0.09473070143016181 0  1.36303112168044 0.234394560524008 0  1.793128428267754 0.5449056235020647 0  1.456359269732076 0.0853923511783965 0  0.07073252688172042 0.8125 0  0.0924753097241701 0.9078102849914793 0  0.1875 0.9292674731182796 0  0.7682628706575021 0.21968392479392 0  1.689066235663035 0.06812089822275402 0  1.5625 0.06665223434522151 0  0.08629472740800861 0.7093098958333333 0  0.2427141098421804 0.7947306254498873 0  0.06546244851676387 0.5625 0  0.4527178439403957 0.9235617251706857 0  0.3374124502762502 0.7856867496593305 0  0.07244843346474747 0.1935015593614702 0  0.8407804668618366 0.7883804554219618 0  0.9375 0.9366989360828237 0  0.6875 0.9364081484450741 0  1.935253831461142 0.5641138319037696 0  1.937429315865514 0.1875 0  1.8125 0.9374987385085876 0  1.928483711053007 0.8035419783483723 0  0.3373417044517646 0.6093653262207313 0  0.7750283570698374 0.4021943662398121 0  2 0.9375 0  0.6018261377893155 0.9147146521504367 0  0.9815243403789714 0.6775971578925968 0  0.07158461019770647 0.4507186710011561 0  1.9375 0 0  1.019104713029961 0.9094058851236668 0  2 0.4375 0  0.6875 0 0  1.02397197994164 0.2329956872895971 0  1.255657062746488 0.3343568140182954 0  1.180051781529707 0.2939695540071484 0  1.104388962334581 0.3296004014243565 0  0.5838265869155305 0.6745968436379023 0  0.7146317133040128 0.667043650085112 0  0.6677533729490804 0.5382877110744301 0  0.5049359339735974 0.08321048302766 0  0.4351540067928767 0.1881135099931097 0  0.5680402441708845 0.2392618820870165 0  0.4656673263165335 0.8121901425102644 0  1.718985137717654 0.1671759310717096 0  1.4375 1 0  0.8715287402118453 0.3170588502721854 0  1.672621580189108 0.931921565809785 0  1.060804454073283 0.7976432689785894 0  1.141028618294955 0.6966341993197843 0  0.8125 1 0  0.5981616234114435 0.7833497566089633 0  0.732195309431751 0.8052745174117424 0  0.3353506138687095 0.3285605215423964 0  0.4182766006288239 0.3211273960747205 0  0.3028379014737833 0.4038516057317523 0  1.456768288899456 0.7763140225372908 0  1.389370295940228 0.9210094415426482 0  1.598162164902742 0.7638673233440213 0  1.933347765654778 0.3310436398456734 0  0.6541421681647213 0.181412141624312 0  0.2268832101806239 0.6637546182266011 0  0.3125 1 0  0.346623148702668 0.9225911511773774 0  1.231253662158137 0.4304167521341539 0  0.0625 0 0  0.7508992867264177 0.5224119450006208 0  0.9892104547763173 0.7537490673206489 0  0.8943342175527331 0.4748890995358561 0  0.4356369246019441 0.5503912432142598 0  0.4191554228232365 0.4728221873796772 0  0.3643745672810942 0.6818651672780586 0  0.489149578067618 0.6723481040184091 0  1.188122303811521 0.2067186239145147 0  1.304029865240875 0.1711332983515724 0  1.427007907485215 0.1923412646022086 0  1.074055283951396 0.173221612474465 0  1.101214724205108 0.4217149349018773 0  0 0.3125 0  0.07197179300639558 0.34236541773817 0  1.235527625173731 0.5766864619018883 0  1.133524648448154 0.5588651314280451 0  0.9352335932234221 0.1986171423824196 0  1.015262196477668 0.07414910731327649 0  1.033045060636793 0.4502679987366521 0  1.864144619093824 0.1953639772769931 0  1.922397783935594 0
[...]
<PointData  Scalars="f_86464"> 
<DataArray  type="Float64"  Name="f_86464"  format="ascii">0.0000000000000000e+00  0.0000000000000000e+00  0.0000000000000000e+00  0.0000000000000000e+00  4.7587455614737635e+01  4.9178317348947999e+01  4.7611185705496112e+01  4.3312249491222822e+01  3.8079030031146040e+01  3.3233480848593516e+01  2.9509089890784615e+01  2.7079760149639249e+01  2.5585333641859442e+01  2.4820613026326235e+01  2.4550183850055731e+01  2.4663114738088382e+01  2.5079495182023514e+01  2.5752414721122015e+01  2.6657858090406524e+01  2.7784111569038824e+01  2.9074935032142438e+01  3.0565810037534646e+01  3.2179889746300425e+01  3.3945447159072984e+01  3.5805435759216401e+01  3.7689502157344165e+01  3.9570442029557739e+01  4.1461925940822326e+01  4.3263450820309153e+01  4.4931841800413117e+01  4.6413438568642164e+01  4.7828641623185234e+01  4.8860648950896433e+01  4.9713267533035840e+01  5.0380556323700965e+01  5.0753620677701171e+01  5.0846052590465199e+01  5.0816664697173437e+01  5.0429603606494609e+01  4.9801454127252988e+01  4.8861457889649444e+01  4.7827085770372072e+01  4.6437687961402503e+01  4.4898911711568580e+01  4.3260334083055945e+01  4.1460593971392520e+01  3.9609168403652404e+01  3.7700298081246864e+01  3.5774897781185075e+01  3.3938612217927449e+01  3.2178248735333831e+01  3.0559010579028190e+01  2.9064517716220077e+01  2.7770453475252179e+01  2.6651744664531364e+01  2.5739130484056975e+01  2.5067805450289175e+01  2.4656709669558186e+01  2.4546337265118744e+01  2.4811216664662684e+01  2.5594374402190457e+01  2.7082834359314010e+01  2.9538042990334606e+01  3.3263008813603690e+01  3.8128239232092895e+01  4.3387284552771405e+01  0.0000000000000000e+00  0.0000000000000000e+00  0.0000000000000000e+00  0.0000000000000000e+00  0.0000000000000000e+00  0.0000000000000000e+00  0.0000000000000000e+00  1.7872384227127233e+02  1.2876617820184768e+02  8.8001476492278911e+01  1.6570591369970779e+02  0.0000000000000000e+00  0.0000000000000000e+00  1.6557992824243107e+02  9.2808152630350349e+01  6.6522949179369235e+01  0.0000000000000000e+00  1.4230352533396837e+02  1.2853483990921254e+02  1.0306244917282247e+02  0.0000000000000000e+00  0.0000000000000000e+00  0.0000000000000000e+00  0.0000000000000000e+00  5.7467370165398826e+01  0.0000000000000000e+00  0.0000000000000000e+00  0.0000000000000000e+00  1.1494346131188614e+02  1.5398105163175831e+02  7.0706285890214431e+01  7.0300697380922884e+01  1.0842390865025884e+02  7.7285910973765866e+00  8.1334012736429155e+00  1.3215108570772495e+02  4.1328929475059482e+01  2.3544004265981567e+01  1.0709010961311389e+01  9.5914087627233954e+01  1.6377339231141204e+02  2.1538976930182475e+01  1.0527503302188148e+01  8.6675836244608959e+01  5.2056497074745522e+01  1.2496296549556091e+02  2.3527453338724477e+01  0.0000000000000000e+00  0.0000000000000000e+00  1.7686525638886300e+02  1.1260940020642947e+02  2.2125236834510964e+01  3.8493772371310868e+01  7.9192865931920821e+01  0.0000000000000000e+00  9.3305414109971110e+01  0.0000000000000000e+00  0.0000000000000000e+00  1.3443807726309467e+02  6.0165642133587440e+01  7.8390962922584251e+01  1.1901940708102482e+02  4.4052311734759591e+01  1.4914665105869005e+02  6.0438128522390592e+01  0.0000000000000000e+00  1.3925332493038721e+02  0.0000000000000000e+00  0.0000000000000000e+00  6.6952970614802226e+01  9.5102681479962627e+01  3.2173172609443625e+01  7.3899757290536357e+01  1.0002880177377806e+02  4.9933751185759164e+01  0.0000000000000000e+00  1.2295836475174464e+02  9.3516927008747786e+01  7.8146778370646956e+01  1.6402113428266696e+02  7.6740770067772331e+01  1.9866291119379216e+01  0.0000000000000000e+00  0.0000000000000000e+00  0.0000000000000000e+00  0.0000000000000000e+00  0.0000000000000000e+00  1.7684079699424103e+02  0.0000000000000000e+00  0.0000000000000000e+00  0.0000000000000000e+00  0.0000000000000000e+00  0.0000000000000000e+00  1.2276890227055394e+02  0.0000000000000000e+00  1.5275270629758469e+02  1.2206029966329915e+02  2.1260664144606249e+01  3.8216356782801853e+01  1.6499370091140253e+02  2.9617025768933782e+00  9.3263208263876180e+01  1.4286320190456522e+02  9.6993055015828674e+01  5.6131855007655737e+01  1.2522089554183491e+02  2.8632260769469715e+00  5.6078024229919876e+00  1.2415487176231757e+02  1.0353834537770955e+02  5.4976322438167536e+01  1.3982886735071082e+01  1.6238634747320422e+01  1.3918147021933189e+01  7.2091498631717798e+01  1.5120688064338353e+02  8.1800835507589412e+01  7.4932746409432340e+01  5.9583456539349392e+01  8.3636384694331110e+00  4.2735698498487080e+00  1.7104941988166043e+01  1.5832993943128028e+02  9.2680047709406477e+00  6.2988014156899183e+01  4.1263138302288674e+01  1.1854078738995923e+02  1.0702473392717947e+02  4.9438592348716838e+01  3.5926295379142822e+01  1.9679783784376976e+01  5.2482783045809612e+01  2.5384095062239734e+01  1.2909182119317288e+02  1.3158355559368627e+02  1.0267209378675351e+02  8.2211748105976710e+01  9.0784862420717772e+01  3.0613833881245750e+01  1.0601396174891095e+01  2.9586815183367612e+01  3.2643308832998741e+01  1.8100502498227343e+01  2.1148246475623534e+01  3.5280044021437170e+01  3.8203845070005137e+01  1.2598462908741553e+01  1.4348735606771720e+02  9.2065742864194888e+01  6.7005934392098894e+01  8.5264111433640096e+01  4.3311434823466239e+00  7.0997369186260508e+00  1.6262146209523021e+02  1.3183757420242850e+02  1.7178619184685891e+02  5.4241992966453687e+01  1.2487455779562558e+02  1.4537681414191391e+02  7.7104748317359338e+01  2.5833107834733035e+01  3.5432310198936811e+01  3.0903631335287905e+01  3.7628728346821609e+00  2.1286479872015822e+00  4.1945632402931476e+00  1.4368772172849052e+02  1.0033932876014707e+02  0.0000000000000000e+00  5.1025383042272985e+01  7.6781246601231715e+01  1.7134018446184169e+02  0.0000000000000000e+00  3.2109963287854761e+01  0.0000000000000000e+00  0.0000000000000000e+00  6.4362473735360496e+01  5.0865536830314056e+01  5.5984395818191409e+01  6.5244462545495850e+01  1.1615284138369083e+02  1.0365414300165867e+02  1.1187172706009684e+02  5.5450648073031687e+01  1.0839521320740789e+02  1.0779837483481909e+02  1.0533735732214819e+02  8.5491707365864809e+00  0.0000000000000000e+00  8.7226031003038500e+01  4.6619074481426042e+00  5.6499471497474154e+01  6.0249336848226712e+01  0.0000000000000000e+00  1.0036912166303981e+02  8.3026844299129507e+01  1.4112630370206912e+02  1.3235003773719671e+02  1.4749695197697713e+02  2.7054857495982109e+01  1.4015882370454774e+01  1.8266941411760033e+01  1.4341770808099993e+01  8.6442307172950052e+01  1.5237103482297690e+02  0.0000000000000000e+00  6.1262432607887369e+01  5.5434979141960930e+01  0.0000000000000000e+00  1.0365366166060662e+02  6.9208075700115828e+01  8.9322150033327063e+01  1.3495409459627149e+02  1.3677996603405225e+02  1.3743465836133296e+02  1.2570488359395307e+02  4.6712424705586265e+01  3.2983482341668022e+01  2.6696064189462660e+01  5.0142616738527138e+01  6.8220815267413016e+01  1.7330964062302743e+02  1.6820145054837118e+02  5.4923150578938142e+01  6.5231471319543573e+01  6.6399692255844045e+01  2.6885826768052933e+01  7.5325111578038957e+01  5.2819878560411597e+00  3.0223744107000986e+01  1.2254659842246149e+01  1.1396360112325041e+02  4.3207835825454808e+01  6.7209777687759001e+01  0.0000000000000000e+00  1.6397492741923415e+01  0.0000000000000000e+00  5.1637535633049787e+01  1.8667279301535395e+00  8.1320135755436013e+01  1.5608282392872701e+02  1.4463544694833362e+02  6.6690759275493733e+01  9.4019394782443072e+01  4.1733991661130297e+01  7.2467559243812744e+01  1.1316804630751186e+02  1.2479901942690840e+02  1.5582190380597578e+02  9.7975380545291486e+01  8.5070622901144091e+01  2.9216653021051492e+01  4.9330287835764167e+01  1.6027535625684462e+02  1.1195506891739093e+02  1.1434309931888545e+02  5.5592941176483663e+01  5.4236615007124101e+01  0.0000000000000000e+00  0.0000000000000000e+00  7.5704250621991605e+01  6.6786337369186583e+01  1.2286609729121679e+02  1.6072727212176960e+02  0.0000000000000000e+00  8.1415081308350807e+01  1.5602167042705808e+00  6.1563824572851518e+00  0.0000000000000000e+00  1.6443614100378817e+01  1.4996963292346013e+02  1.9205869128003418e+01  1.1474423128874365e+01  4.0471212135067027e+01  9.7572019608391454e+00  8.9987732773090272e+01  1.0619880964620789e+01  8.4028396858174006e+01  1.2207769539641017e+01  1.1929637633509280e+00  5.2795924180884173e+00  4.8957352390666937e+00  3.9134299533423615e+01  1.0692988844412518e+02  3.9776456229394256e+01  0.0000000000000000e+00  6.1550620076719639e+01  1.9570599634361528e+01  0.0000000000000000e+00  1.4403393017684240e+02  1.0093017785388977e+02  0.0000000000000000e+00  8.1818323253643101e+01  3.2960099038423074e+01  1.6949877449670950e+02  1.8155403685497763e+01  9.7333878344374043e+01  0.0000000000000000e+00  7.5542681641987059e+01  6.2186262934181869e+01  2.4752483334911638e+01  1.4996561260932168e+01  2.7541854040881102e+01  2.9873918302154955e+01  4.8015790561735159e+00  7.6407332195684972e+01  9.4105603691185820e+01  1.1267225594298036e+02  1.2159713143782929e+02  1.8420283039388146e+01  0.0000000000000000e+00  1.5013283245281130e+02  5.3157017172157941e+00  1.7678633632268749e+01  7.1681938490810325e+01  3.2862177174947938e+01  2.7498831016127568e+01  0.0000000000000000e+00  0.0000000000000000e+00  0.0000000000000000e+00  0.0000000000000000e+00  0.0000000000000000e+00  1.5062008123458210e+02  0.0000000000000000e+00  1.7833666438554951e+02  1.7832406211810664e+02  0.0000000000000000e+00  0.0000000000000000e+00  0.0000000000000000e+00  1.7326278268382927e+02  1.5044661625125437e+02  0.0000000000000000e+00  0.0000000000000000e+00  0.0000000000000000e+00  0.0000000000000000e+00  0.0000000000000000e+00  0.0000000000000000e+00  0.0000000000000000e+00  0.0000000000000000e+00  0.0000000000000000e+00  0.0000000000000000e+00  0.0000000000000000e+00  0.0000000000000000e+00  4.2420596992185231e+01  4.2552108108644646e+01  2.4349413732682503e+01  1.5848473815743958e+02  1.4090442153417599e+00  4.8592215050562380e+01  4.3945494214320981e+01  8.0941422399471094e+01  1.4735721471951953e+02  1.5925106560359090e+01  3.3190489446594384e+01  8.5052895647601190e+01  1.3731474115589228e+02  1.2464536146736009e+01  1.8982707495909705e+00  9.4268158570381843e+01  1.1319103135680221e+02  9.7722438704303372e+01  1.8834689946780905e+01  2.4623101548870363e+01  1.3447901622695882e+01  1.3125614878558617e+01  3.3264500301678936e+01  4.0838072954871400e+01  4.4103921976280283e+01  3.5764765299575906e+01  3.3784440984735504e+01  9.0337972723446427e+01  3.1729752225955686e+01  2.6488515485542081e+01  1.5703744233158401e+01  1.2409508602869914e+02  4.9701600596220999e+01  9.7331747462413148e+01  5.6416837954178384e+01  8.0184665257856096e+01  4.8014726468222818e+01  4.6709065374473759e+01  1.6501068978218564e+02  5.4001773156756855e+01  1.1700894505429132e+02  3.4314012604119348e+01  1.0250095051308742e+02  9.5080755287303305e+00  8.8778340145269027e+01  1.8882819917109739e+01  6.5308048458431770e+01  2.9832951570272983e+00  7.2130911562823741e+01  1.0465852779859681e+01  1.6198841708085759e+01  1.4807081570451902e+02  1.3102752060817036e+02  1.0552343952263512e+02  5.1635424350772801e+01  6.8858730258133590e+01  1.3980537911688404e+02  1.6601047667912377e+02  9.8130541785556797e+00  1.3608701634835565e+01  2.1948310654865484e+01  7.0274592818348268e+01  1.1278033092459775e+02  1.1736071125926166e+02  8.7836636398766217e+01  5.4542837336416071e+01  6.0575840162979006e+01  1.3039379921200859e+02  1.2197438466058753e+02  1.3137612476871269e+02  1.1396572766473643e+02  1.3998307234741091e+02  1.4655250161329866e+02  1.5779141205645413e+02  1.4960754312647763e+01  1.3566184661799150e+01  8.2761018025249165e+00  8.5918778278048549e+01  1.7070750407794506e+02  2.9108153378635937e+01  1.1827816975864584e+02  9.4676118596171946e+01  9.8897829749855646e+01  1.1041766789398622e+02  1.5434969270755868e+01  4.8348148341102927e+01  1.9871615816344519e+01  1.3049023627522408e+02  8.1586115551621788e+01  2.3694722491583249e+01  9.4244472040589841e+01  1.0450297136126446e+01  7.2445664751730341e+00  1.1080656194482863e+02  6.6984146452395578e+01  5.5870346197363432e+01  4.0826693089558333e+01  1.8461192498772157e+01  3.2910864031668233e+01  1.6962030899655522e+02  6.4907672982609384e+01  1.6240587948450039e+02  8.8376246061601435e+01  1.3463531615810788e+02  3.1563321555548161e+01  2.7503858027234624e+00  1.6594992937437658e+02  1.5668029028375815e+02  5.1044190488071237e+01  1.3480956010481935e+02  3.3919481154408949e+01  1.5865679623361609e+02  1.0604678502808660e+02  1.0515631867985661e+02  1.0117127034311773e+02  9.8880081639171223e+01  6.0088419343362467e+01  7.8386640211956413e+00  3.9513616065663300e+01  1.5006835857090380e+01  2.7361844760295031e+00  1.1364575273120039e+02  1.1960712945674551e+02  1.2369409664217896e+02  5.9453542246671581e+01  4.8705400115059319e+01  8.3761515020703342e+01  1.3660921429291173e+01  1.2526080850568536e+02  1.3423766190311520e+02  7.8257338240493413e+00  7.1517802561464370e+00  3.2900569134477912e+01  1.2800278866428042e+02  1.5053532618262147e+02  3.1658877237642269e+01  6.3277354342856684e+00  3.8293040922208633e+01  1.1649695933280977e+02  2.1676428854913357e+01  9.8533396949166239e+00  1.6715241295817808e+01  5.7677415831126424e+01  4.7047071528295220e+01  8.4291894344563858e+01  4.9771413114327729e+01  1.4188541392270790e+02  8.4403914546471004e+00  9.8642113086315646e+01  1.2377448452132473e+01  1.2661880035281004e+02  2.2749909352658509e+01  1.3473860679021132e+02  4.9503406348236307e+00  1.4899594088110217e+02  1.4815234020998676e+02  2.1697570209478570e+01  4.6338704928403892e+01  1.4990775773436704e+02  1.2406258451424928e+02  1.9516733318058538e+01  4.0050849008021792e+01  2.9645156150108583e+01  2.3987671382918563e+01  4.4590482210345819e+01  8.8582701412266516e+01  1.3217714160358477e+02  1.1607535629958819e+02  1.2681688884731095e+02  5.5674957634444169e+01  2.1982961610174542e+01  8.8993228472852039e+01  9.8187299590943510e+01  1.2813566781307856e+02  1.2680706365916519e+01  1.1256734556772604e+02  1.2311756561163786e+02  9.8144285367323576e+01  5.5982971336249342e+01  3.8588453734429905e+01  3.1270953223800436e+01  5.6514556242501023e+01  5.7017280717829870e+01  5.7225284018951790e+01  5.9987028116213290e+00  9.1607710456220374e+01  1.0229185882703527e+02  1.7015748470990378e+01  1.7609195167978999e+01  3.7452697982169845e+01  4.1284889059698116e+01  9.3003351390002365e+01  1.5667509396631044e+02  1.6246183870644623e+02  6.0877787223593629e+01  4.9025103136695890e+01  3.7720929760235151e+01  6.1933825642474062e+01  4.3790585094803049e+01  2.5398812787387737e+01  6.0999994775845451e+01  6.5256877024234967e+01  1.5232705131024042e+02  8.5933711848797117e+01  6.6499956024064289e+01  1.1980864958154004e+02  1.9353622986006837e+01  5.4316982274841912e+01  5.3550345053819504e+00  6.5409250901280672e+01  2.7388452626709359e+01  3.7780751344239185e+01  2.3581901413442271e+01  3.2189184649792900e+01  9.6274615520108085e+01  6.9038338717077341e-01  8.0849438367498450e-01  2.0698093688426034e+01  1.5613257241944800e+02  6.9261820486362978e+01  7.6812022694478387e+01  9.0659144762173625e+01  7.6825583435080546e+01  1.9207464680040648e+01  7.9642997853987527e+00  6.1174996126262480e+00  7.0123695618758948e+00  1.3850761820723528e+02  9.8411351997291391e+01  7.2029650564775963e+01  1.5602069272342945e+02  6.7339908265336049e+01  7.6295491217337272e+01  7.6157925159201332e+00  5.5520642780535301e+00  9.0024201452435459e+00  6.1542503002395730e+00  3.3309767786468953e+01  6.5558933677286589e+01  5.5223184808387821e+01  1.6593544637785353e+00  2.1102087955846009e+01  1.6854916590715268e+02  1.7485142972802390e+02  1.7449322584404555e+02  1.4695999653482329e+02  2.2987006262397966e+01  2.3001710936142455e+01  3.9236278628985932e+00  5.5352898336652359e+01  3.2992566161918937e+01  6.9749717149112556e+01  1.6680722587543605e+02  1.1095047226055388e+02  1.2473270626034969e+02  3.1055872574261136e+00  6.9904407587556207e+01  7.6734866527353773e+01  2.0625901368206165e+01  1.1402830602803076e+02  1.7437517488239567e+02  3.3841385662504324e+00  5.9957001918023408e+01  2.2879871695762329e+01  6.2117166035671140e+01  3.9358787451374610e+01  1.0797360944671489e+02  1.0485714811280087e+02  3.5987545610044279e+01  1.0550022179245646e+01  2.5640182717672291e+00  2.4156510999294047e+00  4.5622636753589765e+00  3.0054380038565847e+00  2.4711470184146229e+00  9.9232801983313024e-01  1.6615093581211473e+00  6.6977588446694185e+01  4.3916526060934601e+01  1.5899216114553911e+02  6.9814169520126583e+01  1.3909518172775350e+02  7.6811374652711315e+00  5.8602424534566119e+01  1.3577431158893319e+02  1.4270701369319153e+02  1.3784600644766482e+02  1.4597904705296540e+02  3.9042049477834610e+01  9.8455473932459256e+01  7.6752495136195378e+01  7.5920679231874374e+01  7.1233194111929819e+01  5.3912805875047255e+01  5.6751234071150506e+01  2.8623035687494669e+00  7.5448060862083137e+00  1.5859794134301987e+01  4.7746411680443607e+01  5.0674859016661543e+01  9.5936003125245932e+01  1.7468981858959060e+02  1.7246339295867006e+01  3.8407741053639711e+01  3.4802504866410999e+01  1.0977669118473118e+02  1.0257886698932714e+02  1.1818148879580087e+02  8.4278806090366132e+01  3.5293257861989098e+01  2.4743525325789776e+01  5.0808677371461663e+01  1.4264124668671505e+02  2.6151163556086200e+01  1.5423705773757760e+02  0.0000000000000000e+00  8.2799653471895539e+01  8.9646192483225221e+01  7.0611340697018690e+01  1.3962486483554525e+01  1.3272297260566103e+02  1.0530792603156731e+02  4.0744746266481584e+01  2.2307628400424587e+01  8.2500817440867024e+01  8.5918621897379566e+01  9.1573985979116827e+01  1.2119327033701769e+01  1.1529234016003265e+02  2.7140802048330627e+01  9.3121724896731362e+00  1.0732428095456127e+02  1.0902885766758763e+02  8.4947823420627671e+01  3.5626502472885242e+01  7.4651209650647090e+01  0.0000000000000000e+00  3.7379284407173685e+01  1.5427552187452423e+02  8.1616243505987669e+01  2.9650993590095567e+01  7.6965324716415651e+01  6.1143047565027310e+01  6.5192445365476786e+01  1.7438006163281713e+01  3.0571924489523120e+01  9.8575384245533343e+01  1.0795570714552628e+02  1.0526628107903406e+02  1.4861094369676549e+01  0.0000000000000000e+00  8.5952954262392524e+01  1.1486694017760486e+02  1.1280312208410005e+02  0.0000000000000000e+00  1.1378238621810251e+01  1.2065998243177280e+02  2.7372397528403660e+01  3.0978898922566827e+01  1.1664317435986126e+02  9.0624793895179337e+01  5.9390234214580886e+01  7.5070842485937717e+01  1.4407664473443049e+02  1.3121394497267775e+02  1.2711633692135537e+02  1.2138456584861171e+02  1.0340563320626883e+02  1.4395809298208820e+02  0.0000000000000000e+00  7.5653541429641598e+00  3.3779808276067227e+00  1.3878334791656545e+02  6.3715650636822289e+01  1.9760143055102485e+01  7.1217245410884672e+01  5.5656565710888160e+01  6.0251161115477267e+01  2.2253447267694273e+01  7.3334903216416780e+00  7.9574349158042295e+01  0.0000000000000000e+00  6.6303062736490602e+01  1.3194791132691364e+02  1.3891738226584206e+02  1.3154631244253076e+02  1.3458291296586805e+02  1.6433313165171828e+01  1.9812226485636188e+01  6.8298248371408448e+01  1.4045064849256141e+02  3.9397558172616010e+00  1.5721666568984008e+02  1.1855740290855916e+01  1.0334614117581110e+02  1.8819202509706702e+01  1.0446499736552511e+02  9.0293102777030143e+01  1.0771486704389463e+02  1.1897544423332124e+02  5.2541176592922838e+01  2.1106904843353664e+01  9.1253564927710599e+01  3.6861553791394918e+01  7.3121290808110743e+01  7.9936999483877813e+01  3.9383004540259581e+00  2.8277768431419123e+01  7.9683690316249155e+01  8.0520160770827943e+01  9.6118998752079506e+01  9.1687435256934805e+01  8.6829014464959528e+01  1.0588539048711409e+01  7.4089994874017009e+01  1.4330629017328124e+02  7.3275414732387617e+01  7.7340880811453331e+01  7.9386443930711877e+01  1.0709986652564389e+01  1.73055146953