<?xml version="1.0"?>
<VTKFile type="UnstructuredGrid"  version="0.1"  >
<UnstructuredGrid>
<Piece  NumberOfPoints="441" NumberOfCells="800">
<Points>
<DataArray  type="Float64"  NumberOfComponents="3"  format="ascii">0 0 0  0.05 0 0  0.1 0 0  0.15 0 0  0.2 0 0  0.25 0 0  0.3 0 0  0.35 0 0  0.4 0 0  0.45 0 0  0.5 0 0  0.55 0 0  0.6 0 0  0.65 0 0  0.7 0 0  0.75 0 0  0.8 0 0  0.85 0 0  0.9 0 0  0.95 0 0  1 0 0  0 0.05 0  0.05 0.05 0  0.1 0.05 0  0.15 0.05 0  0.2 0.05 0  0.25 0.05 0  0.3 0.05 0  0.35 0.05 0  0.4 0.05 0  0.45 0.05 0  0.5 0.05 0  0.55 0.05 0  0.6 0.05 0  0.65 0.05 0  0.7 0.05 0  0.75 0.05 0  0.8 0.05 0  0.85 0.05 0  0.9 0.05 0  0.95 0.05 0  1 0.05 0  0 0.1 0  0.05 0.1 0  0.1 0.1 0  0.15 0.1 0  0.2 0.1 0  0.25 0.1 0  0.3 0.1 0  0.35 0.1 0  0.4 0.1 0  0.45 0.1 0  0.5 0.1 0  0.55 0.1 0  0.6 0.1 0  0.65 0.1 0  0.7 0.1 0  0.75 0.1 0  0.8 0.1 0  0.85 0.1 0  0.9 0.1 0  0.95 0.1 0  1 0.1 0  0 0.15 0  0.05 0.15 0  0.1 0.15 0  0.15 0.15 0  0.2 0.15 0  0.25 0.15 0  0.3 0.15 0  0.35 0.15 0  0.4 0.15 0  0.45 0.15 0  0.5 0.15 0  0.55 0.15 0  0.6 0.15 0  0.65 0.15 0  0.7 0.15 0  0.75 0.15 0  0.8 0.15 0  0.85 0.15 0  0.9 0.15 0  0.95 0.15 0  1 0.15 0  0 0.2 0  0.05 0.2 0  0.1 0.2 0  0.15 0.2 0  0.2 0.2 0  0.25 0.2 0  0.3 0.2 0  0.35 0.2 0  0.4 0.2 0  0.45 0.2 0  0.5 0.2 0  0.55 0.2 0  0.6 0.2 0  0.65 0.2 0  0.7 0.2 0  0.75 0.2 0  0.8 0.2 0  0.85 0.2 0  0.9 0.2 0  0.95 0.2 0  1 0.2 0  0 0.25 0  0.05 0.25 0  0.1 0.25 0  0.15 0.25 0  0.2 0.25 0  0.25 0.25 0  0.3 0.25 0  0.35 0.25 0  0.4 0.25 0  0.45 0.25 0  0.5 0.25 0  0.55 0.25 0  0.6 0.25 0  0.65 0.25 0  0.7 0.25 0  0.75 0.25 0  0.8 0.25 0  0.85 0.25 0  0.9 0.25 0  0.95 0.25 0  1 0.25 0  0 0.3 0  0.05 0.3 0  0.1 0.3 0  0.15 0.3 0  0.2 0.3 0  0.25 0.3 0  0.3 0.3 0  0.35 0.3 0  0.4 0.3 0  0.45 0.3 0  0.5 0.3 0  0.55 0.3 0  0.6 0.3 0  0.65 0.3 0  0.7 0.3 0  0.75 0.3 0  0.8 0.3 0  0.85 0.3 0  0.9 0.3 0  0.95 0.3 0  1 0.3 0  0 0.35 0  0.05 0.35 0  0.1 0.35 0  0.15 0.35 0  0.2 0.35 0  0.25 0.35 0  0.3 0.35 0  0.35 0.35 0  0.4 0.35 0  0.45 0.35 0  0.5 0.35 0  0.55 0.35 0  0.6 0.35 0  0.65 0.35 0  0.7 0.35 0  0.75 0.35 0  0.8 0.35 0  0.85 0.35 0  0.9 0.35 0  0.95 0.35 0  1 0.35 0  0 0.4 0  0.05 0.4 0  0.1 0.4 0  0.15 0.4 0  0.2 0.4 0  0.25 0.4 0  0.3 0.4 0  0.35 0.4 0  0.4 0.4 0  0.45 0.4 0  0.5 0.4 0  0.55 0.4 0  0.6 0.4 0  0.65 0.4 0  0.7 0.4 0  0.75 0.4 0  0.8 0.4 0  0.85 0.4 0  0.9 0.4 0  0.95 0.4 0  1 0.4 0  0 0.45 0  0.05 0.45 0  0.1 0.45 0  0.15 0.45 0  0.2 0.45 0  0.25 0.45 0  0.3 0.45 0  0.35 0.45 0  0.4 0.45 0  0.45 0.45 0  0.5 0.45 0  0.55 0.45 0  0.6 0.45 0  0.65 0.45 0  0.7 0.45 0  0.75 0.45 0  0.8 0.45 0  0.85 0.45 0  0.9 0.45 0  0.95 0.45 0  1 0.45 0  0 0.5 0  0.05 0.5 0  0.1 0.5 0  0.15 0.5 0  0.2 0.5 0  0.25 0.5 0  0.3 0.5 0  0.35 0.5 0  0.4 0.5 0  0.45 0.5 0  0.5 0.5 0  0.55 0.5 0  0.6 0.5 0  0.65 0.5 0  0.7 0.5 0  0.75 0.5 0  0.8 0.5 0  0.85 0.5 0  0.9 0.5 0  0.95 0.5 0  1 0.5 0  0 0.55 0  0.05 0.55 0  0.1 0.55 0  0.15 0.55 0  0.2 0.55 0  0.25 0.55 0  0.3 0.55 0  0.35 0.55 0  0.4 0.55 0  0.45 0.55 0  0.5 0.55 0  0.55 0.55 0  0.6 0.55 0  0.65 0.55 0  0.7 0.55 0  0.75 0.55 0  0.8 0.55 0  0.85 0.55 0  0.9 0.55 0  0.95 0.55 0  1 0.55 0  0 0.6 0  0.05 0.6 0  0.1 0.6 0  0.15 0.6 0  0.2 0.6 0  0.25 0.6 0  0.3 0.6 0  0.35 0.6 0  0.4 0.6 0  0.45 0.6 0  0.5 0.6 0  0.55 0.6 0  0.6 0.6 0  0.65 0.6 0  0.7 0.6 0  0.75 0.6 0  0.8 0.6 0  0.85 0.6 0  0.9 0.6 0  0.95 0.6 0  1 0.6 0  0 0.65 0  0.05 0.65 0  0.1 0.65 0  0.15 0.65 0  0.2 0.65 0  0.25 0.65 0  0.3 0.65 0  0.35 0.65 0  0.4 0.65 0  0.45 0.65 0  0.5 0.65 0  0.55 0.65 0  0.6 0.65 0  0.65 0.65 0  0.7 0.65 0  0.75 0.65 0  0.8 0.65 0  0.85 0.65 0  0.9 0.65 0  0.95 0.65 0  1 0.65 0  0 0.7 0  0.05 0.7 0  0.1 0.7 0  0.15 0.7 0  0.2 0.7 0  0.25 0.7 0  0.3 0.7 0  0.35 0.7 0  0.4 0.7 0  0.45 0.7 0  0.5 0.7 0  0.55 0.7 0  0.6 0.7 0  0.65 0.7 0  0.7 0.7 0  0.75 0.7 0  0.8 0.7 0  0.85 0.7 0  0.9 0.7 0  0.95 0.7 0  1 0.7 0  0 0.75 0  0.05 0.75 0  0.1 0.75 0  0.15 0.75 0  0.2 0.75 0  0.25 0.75 0  0.3 0.75 0  0.35 0.75 0  0.4 0.75 0  0.45 0.75 0  0.5 0.75 0  0.55 0.75 0  0.6 0.75 0  0.65 0.75 0  0.7 0.75 0  0.75 0.75 0  0.8 0.75 0  0.85 0.75 0  0.9 0.75 0  0.95 0.75 0  1 0.75 0  0 0.8 0  0.05 0.8 0  0.1 0.8 0  0.15 0.8 0  0.2 0.8 0  0.25 0.8 0  0.3 0.8 0  0.35 0.8 0  0.4 0.8 0  0.45 0.8 0  0.5 0.8 0  0.55 0.8 0  0.6 0.8 0  0.65 0.8 0  0.7 0.8 0  0.75 0.8 0  0.8 0.8 0  0.85 0.8 0  0.9 0.8 0  0.95 0.8 0  1 0.8 0  0 0.85 0  0.05 0.85 0  0.1 0.85 0  0.15 0.85 0  0.2 0.85 0  0.25 0.85 0  0.3 0.85 0  0.35 0.85 0  0.4 0.85 0  0.45 0.85 0  0.5 0.85 0  0.55 0.85 0  0.6 0.85 0  0.65 0.85 0  0.7 0.85 0  0.75 0.85 0  0.8 0.85 0  0.85 0.85 0  0.9 0.85 0  0.95 0.85 0  1 0.85 0  0 0.9 0  0.05 0.9 0  0.1 0.9 0  0.15 0.9 0  0.2 0.9 0  0.25 0.9 0  0.3 0.9 0  0.35 0.9 0  0.4 0.9 0  0.45 0.9 0  0.5 0.9 0  0.55 0.9 0  0.6 0.9 0  0.65 0.9 0  0.7 0.9 0  0.75 0.9 0  0.8 0.9 0  0.85 0.9 0  0.9 0.9 0  0.95 0.9 0  1 0.9 0  0 0.95 0  0.05 0.95 0  0.1 0.95 0  0.15 0.95 0  0.2 0.95 0  0.25 0.95 0  0.3 0.95 0  0.35 0.95 0  0.4 0.95 0  0.45 0.95 0  0.5 0.95 0  0.55 0.95 0  0.6 0.95 0  0.65 0.95 0  0.7 0.95 0  0.75 0.95 0  0.8 0.95 0  0.85 0.95 0  0.9 0.95 0  0.95 0.95 0  1 0.95 0  0 1 0  0.05 1 0  0.1 1 0  0.15 1 0  0.2 1 0  0.25 1 0  0.3 1 0  0.35 1 0  0.4 1 0  0.45 1 0  0.5 1 0  0.55 1 0  0.6 1 0  0.65 1 0  0.7 1 0  0.75 1 0  0.8 1 0  0.85 1 0  0.9 1 0  0.95 1 0  1 1 0  </DataArray>
</Points>
<Cells>
[...]
<PointData  Scalars="f_25"> 
<DataArray  type="Float64"  Name="f_25"  format="ascii">0.0000000000000000e+00  0.0000000000000000e+00  0.0000000000000000e+00  0.0000000000000000e+00  0.0000000000000000e+00  0.0000000000000000e+00  0.0000000000000000e+00  0.0000000000000000e+00  0.0000000000000000e+00  0.0000000000000000e+00  0.0000000000000000e+00  0.0000000000000000e+00  0.0000000000000000e+00  0.0000000000000000e+00  0.0000000000000000e+00  0.0000000000000000e+00  0.0000000000000000e+00  0.0000000000000000e+00  0.0000000000000000e+00  0.0000000000000000e+00  0.0000000000000000e+00  0.0000000000000000e+00  1.0439982109948120e-06  2.7620292679691810e-06  5.3468592106081735e-06  9.0265159937113118e-06  1.4052732567225770e-05  2.0687996832462420e-05  2.9188018818545144e-05  3.9777615550935855e-05  5.2617825052845096e-05  6.7761091207060883e-05  8.5089552743179174e-05  1.0422850831460989e-04  1.2442248491403916e-04  1.4435411933979249e-04  1.6187455923961282e-04  1.7359436794045822e-04  1.7424543660872407e-04  1.5563553330782623e-04  1.0477478230181325e-04  0.0000000000000000e+00  0.0000000000000000e+00  2.7620292679691823e-06  7.1991704395191842e-06  1.3823593652312687e-05  2.3218088439221753e-05  3.6018823431899943e-05  5.2885680166965487e-05  7.4458490640323411e-05  1.0129570755482602e-04  1.3379031219093180e-04  1.7205494333651826e-04  2.1576353472467329e-04  2.6392926473960067e-04  3.1458709070447764e-04  3.6433167128286905e-04  4.0763492573894067e-04  4.3582595105980582e-04  4.3554760668672744e-04  3.8638482103613776e-04  2.5714978398991365e-04  0.0000000000000000e+00  0.0000000000000000e+00  5.3468592106081778e-06  1.3823593652312690e-05  2.6400155026641506e-05  4.4172740896764753e-05  6.8331872660278614e-05  1.0010765682950842e-04  1.4068777593908709e-04  1.9110174926533738e-04  2.5206174308320042e-04  3.2374480092879924e-04  4.0549256095948923e-04  4.9539075186800672e-04  5.8966997224002050e-04  6.8183875926949020e-04  7.6141604138859416e-04  8.1206756946877550e-04  8.0886304379846285e-04  7.1425186145951348e-04  4.7221741188235595e-04  0.0000000000000000e+00  0.0000000000000000e+00  9.0265159937113169e-06  2.3218088439221770e-05  4.4172740896764760e-05  7.3694305342859236e-05  1.1373743599804917e-04  1.6631636451030680e-04  2.3336880975803389e-04  3.1656382573657174e-04  4.1703727101289912e-04  5.3502979157640199e-04  6.6938794752433202e-04  8.1686709439032464e-04  9.7114206358509046e-04  1.1213853369317970e-03  1.2502088210283163e-03  1.3306815858465828e-03  1.3220320025928917e-03  1.1635279648071776e-03  7.6593805889302433e-04  0.0000000000000000e+00  0.0000000000000000e+00  1.4052732567225777e-05  3.6018823431899997e-05  6.8331872660278654e-05  1.1373743599804920e-04  1.7520661981673051e-04  2.5579485070382092e-04  3.5843225696873871e-04  4.8562803845516044e-04  6.3906353719539672e-04  8.1903552057276390e-04  1.0236899217544147e-03  1.2479538462980744e-03  1.4820265264438479e-03  1.7092245315531653e-03  1.9028902039133230e-03  2.0219649346545896e-03  2.0047069074640694e-03  1.7599163312164350e-03  1.1549654708245293e-03  0.0000000000000000e+00  0.0000000000000000e+00  2.0687996832462441e-05  5.2885680166965562e-05  1.0010765682950858e-04  1.6631636451030691e-04  2.5579485070382102e-04  3.7294001220536193e-04  5.2195654135382165e-04  7.0642572776385124e-04  9.2871218711235712e-04  1.1891527621520055e-03  1.4849418129501976e-03  1.8085818447712019e-03  2.1457036370705327e-03  2.4719719939672929e-03  2.7486802277257249e-03  2.9165015611111308e-03  2.8867212270539300e-03  2.5291481277425610e-03  1.6558541575599156e-03  0.0000000000000000e+00  0.0000000000000000e+00  2.9188018818545174e-05  7.4458490640323506e-05  1.4068777593908720e-04  2.3336880975803392e-04  3.5843225696873882e-04  5.2195654135382187e-04  7.2973918186751657e-04  9.8669322882456072e-04  1.2960172272839794e-03  1.6580613516020916e-03  2.0687716433326541e-03  2.5175335548410132e-03  2.9841501860747763e-03  3.4345758563927267e-03  3.8148814943090503e-03  4.0427611700719302e-03  3.9957176402706900e-03  3.4949273776978635e-03  2.2837486101723661e-03  0.0000000000000000e+00  0.0000000000000000e+00  3.9777615550935888e-05  1.0129570755482609e-04  1.9110174926533752e-04  3.1656382573657196e-04  4.8562803845516065e-04  7.0642572776385168e-04  9.8669322882456072e-04  1.3329551827643000e-03  1.7494018777567874e-03  2.2363569635236919e-03  2.7881784726485953e-03  3.3903571503098575e-03  4.0154657536368684e-03  4.6174673811014144e-03  5.1237110397983360e-03  5.4237388111901602e-03  5.3538269094703201e-03  4.6760319958644957e-03  3.0504961038674942e-03  0.0000000000000000e+00  0.0000000000000000e+00  5.2617825052845157e-05  1.3379031219093191e-04  2.5206174308320070e-04  4.1703727101289928e-04  6.3906353719539672e-04  9.2871218711235712e-04  1.2960172272839794e-03  1.7494018777567872e-03  2.2942039463999344e-03  2.9306648808810633e-03  3.6511795491076769e-03  4.4365039868455459e-03  5.2504801398426046e-03  6.0326563296948105e-03  6.6879626944626397e-03  7.0723570462616573e-03  6.9731225825766952e-03  6.0823372277136823e-03  3.9620459319385229e-03  0.0000000000000000e+00  0.0000000000000000e+00  6.7761091207060964e-05  1.7205494333651845e-04  3.2374480092879952e-04  5.3502979157640188e-04  8.1903552057276347e-04  1.1891527621520051e-03  1.6580613516020914e-03  2.2363569635236915e-03  2.9306648808810633e-03  3.7410699490374958e-03  4.6576072927579744e-03  5.6554353295445890e-03  6.6881437427717925e-03  7.6784311665962406e-03  8.5051258068602423e-03  8.9852375919728961e-03  8.8494668972511573e-03  7.7094306194047738e-03  5.0149246033515610e-03  0.0000000000000000e+00  0.0000000000000000e+00  8.5089552743179242e-05  2.1576353472467345e-04  4.0549256095948944e-04  6.6938794752433213e-04  1.0236899217544145e-03  1.4849418129501966e-03  2.0687716433326533e-03  2.7881784726485927e-03  3.6511795491076756e-03  4.6576072927579718e-03  5.7947426089749888e-03  7.0313230992861573e-03  8.3092635458027510e-03  9.5321693685637178e-03  1.0549420468392939e-02  1.1134280644069508e-02  1.0954203005695527e-02  9.5313510966828722e-03  6.1914869895385609e-03  0.0000000000000000e+00  0.0000000000000000e+00  1.0422850831460995e-04  2.6392926473960078e-04  4.9539075186800683e-04  8.1686709439032399e-04  1.2479538462980728e-03  1.8085818447711995e-03  2.5175335548410106e-03  3.3903571503098545e-03  4.4365039868455433e-03  5.6554353295445838e-03  7.0313230992861513e-03  8.5257961363552001e-03  1.0067950181132055e-02  1.1540546040754864e-02  1.2760979970382570e-02  1.3455260123040299e-02  1.3222934577252774e-02  1.1490808307885864e-02  7.4535338994953697e-03  0.0000000000000000e+00  0.0000000000000000e+00  1.2442248491403916e-04  3.1458709070447758e-04  5.8966997224001996e-04  9.7114206358508927e-04  1.4820265264438458e-03  2.1457036370705292e-03  2.9841501860747724e-03  4.0154657536368623e-03  5.2504801398425985e-03  6.6881437427717865e-03  8.3092635458027475e-03  1.0067950181132048e-02  1.1879879158677669e-02  1.3606144499667279e-02  1.5031116357192797e-02  1.5832355259725352e-02  1.5540375695215016e-02  1.3486036356592056e-02  8.7337691706290913e-03  0.0000000000000000e+00  0.0000000000000000e+00  1.4435411933979241e-04  3.6433167128286877e-04  6.8183875926948955e-04  1.1213853369317955e-03  1.7092245315531625e-03  2.4719719939672886e-03  3.4345758563927224e-03  4.6174673811014101e-03  6.0326563296948061e-03  7.6784311665962345e-03  9.5321693685637126e-03  1.1540546040754853e-02  1.3606144499667279e-02  1.5569128172581896e-02  1.7182259804431985e-02  1.8077218739496942e-02  1.7719989052278506e-02  1.5353254189760582e-02  9.9244835716899224e-03  0.0000000000000000e+00  0.0000000000000000e+00  1.6187455923961268e-04  4.0763492573894035e-04  7.6141604138859394e-04  1.2502088210283153e-03  1.9028902039133200e-03  2.7486802277257214e-03  3.8148814943090438e-03  5.1237110397983300e-03  6.6879626944626354e-03  8.5051258068602319e-03  1.0549420468392925e-02  1.2760979970382554e-02  1.5031116357192790e-02  1.7182259804431992e-02  1.8940812341199726e-02  1.9900894120612224e-02  1.9476947840165040e-02  1.6843651576032022e-02  1.0862895141034655e-02  0.0000000000000000e+00  0.0000000000000000e+00  1.7359436794045808e-04  4.3582595105980544e-04  8.1206756946877463e-04  1.3306815858465811e-03  2.0219649346545866e-03  2.9165015611111273e-03  4.0427611700719250e-03  5.4237388111901550e-03  7.0723570462616521e-03  8.9852375919728857e-03  1.1134280644069496e-02  1.3455260123040288e-02  1.5832355259725355e-02  1.8077218739496952e-02  1.9900894120612241e-02  2.0876771108959004e-02  2.0393038064993881e-02  1.7594127560162067e-02  1.1312970801674163e-02  0.0000000000000000e+00  0.0000000000000000e+00  1.7424543660872379e-04  4.3554760668672662e-04  8.0886304379846133e-04  1.3220320025928891e-03  2.0047069074640659e-03  2.8867212270539248e-03  3.9957176402706839e-03  5.3538269094703141e-03  6.9731225825766874e-03  8.8494668972511539e-03  1.0954203005695520e-02  1.3222934577252765e-02  1.5540375695215023e-02  1.7719989052278513e-02  1.9476947840165040e-02  2.0393038064993874e-02  1.9872806049869740e-02  1.7092164979960633e-02  1.0944841558143237e-02  0.0000000000000000e+00  0.0000000000000000e+00  1.5563553330782593e-04  3.8638482103613706e-04  7.1425186145951218e-04  1.1635279648071750e-03  1.7599163312164308e-03  2.5291481277425558e-03  3.4949273776978566e-03  4.6760319958644896e-03  6.0823372277136762e-03  7.7094306194047677e-03  9.5313510966828618e-03  1.1490808307885854e-02  1.3486036356592058e-02  1.5353254189760586e-02  1.6843651576032029e-02  1.7594127560162074e-02  1.7092164979960640e-02  1.4638261579183154e-02  9.3164931133334645e-03  0.0000000000000000e+00  0.0000000000000000e+00  1.0477478230181305e-04  2.5714978398991311e-04  4.7221741188235497e-04  7.6593805889302270e-04  1.1549654708245267e-03  1.6558541575599126e-03  2.2837486101723622e-03  3.0504961038674903e-03  3.9620459319385177e-03  5.0149246033515558e-03  6.1914869895385513e-03  7.4535338994953619e-03  8.7337691706290896e-03  9.9244835716899207e-03  1.0862895141034657e-02  1.1312970801674167e-02  1.0944841558143240e-02  9.3164931133334645e-03  5.8721795129960015e-03  0.0000000000000000e+00  0.0000000000000000e+00  0.0000000000000000e+00  0.0000000000000000e+00  0.0000000000000000e+00  0.0000000000000000e+00  0.0000000000000000e+00  0.0000000000000000e+00  0.0000000000000000e+00  0.0000000000000000e+00  0.0000000000000000e+00  0.0000000000000000e+00  0.0000000000000000e+00  0.0000000000000000e+00  0.0000000000000000e+00  0.0000000000000000e+00  0.0000000000000000e+00  0.0000000000000000e+00  0.0000000000000000e+00  0.0000000000000000e+00  0.0000000000000000e+00  0.0000000000000000e+00  </DataArray> 
</PointData> 
</Piece>
</UnstructuredGrid>
</VTKFile>