<?xml version="1.0"?>
<VTKFile type="UnstructuredGrid"  version="0.1"  >
<UnstructuredGrid>
<Piece  NumberOfPoints="484" NumberOfCells="844">
<Points>
<DataArray  type="Float64"  NumberOfComponents="3"  format="ascii">0 1 0  0 0 0  2 0 0  2 1 0  1.78374517251019 0.597409840761405 0  1.8 0.5 0  1.78374517251019 0.4025901592385949 0  1.736742152818918 0.3157361861930998 0  1.664084447436728 0.2488500565212414 0  1.57364564614224 0.2091799202182009 0  1.4752261963583 0.2010246520979991 0  1.379491372604109 0.2252680020034827 0  1.296815528512278 0.2792828267980605 0  1.236157874638053 0.3572157820888781 0  1.204091608979183 0.4506216229157799 0  1.204091608979183 0.5493783770842202 0  1.236157874638053 0.6427842179111221 0  1.296815528512278 0.7207171732019395 0  1.379491372604109 0.7747319979965173 0  1.4752261963583 0.798975347902001 0  1.57364564614224 0.790820079781799 0  1.664084447436728 0.7511499434787585 0  1.736742152818918 0.6842638138069004 0  1 0 0  1 1 0  2 0.5 0  1.5 0 0  1.5 1 0  0 0.5 0  0.5 0 0  0.5 1 0  0.5 0.5 0  0.25 0 0  0 0.25 0  0.25 1 0  0 0.75 0  0.75 0 0  0.8427491755246432 0.6572508244753567 0  0.875 0.3175300405945146 0  0.2916666666666666 0.7083333333333334 0  0.25 0.375 0  0.610247075176929 0.25 0  0.5416666666666666 0.75 0  0.75 1 0  1.25 1 0  1.75 0 0  2 0.75 0  2 0.25 0  1.25 0 0  1.75 1 0  0.375 0.1875 0  1.069495412948943 0.2107268018903497 0  1.043953358214098 0.7723871654579093 0  0.7027473652812255 0.4401003809181993 0  0.9926636277338787 0.5 0  0.18359375 0.1953125 0  0.8672518169507546 0.8478050486602485 0  0.1825980392156863 0.5526960784313726 0  0.375 0.8690476190476191 0  0.1614583333333333 0.8385416666666667 0  1.838152029260268 0.1618479707397315 0  1.838152029260268 0.8381520292602684 0  0.6412239774629146 0.6049348926450698 0  0.908015859390367 0.1471581891158557 0  0.6935429486943157 0.8352419871991814 0  0.4620194896849508 0.3339422041260197 0  0.3386260301221938 0.5102479397556123 0  0.7621341763941456 0.207273156180265 0  1.190810493169511 0.8465129988005128 0  1.020856530275323 0.3526481456704165 0  0.849075543720454 0.4634191137771964 0  0.431547619047619 0.6398809523809523 0  0.1362784921584264 0.6929750044954186 0  0.625 0 0  1.211817740048463 0.1499656054283927 0  0.1209635416666667 0.3205729166666667 0  0.9847249395404201 0.6425172705623372 0  1.625 1 0  1.625 0 0  0.512541963799791 0.1437779758665274 0  1.872282141090511 0.7014690197214168 0  1.872282141090511 0.2985309802785833 0  0.125 0 0  0 0.125 0  1.6875 0.8823219300183902 0  1.711427764122643 0.1259391373285045 0  0.5857007603431403 0.379498796222937 0  1.375 0 0  1.375 1 0  1.125 0 0  0.625 1 0  0.5625 0.8819444444444444 0  0.7610741504680187 0.5575659807793669 0  1.110450875748598 0.6337323832732733 0  0.6577022951304317 0.1273651155880749 0  0.875 0 0  2 0.125 0  1.875 0 0  0 0.625 0  0 0.875 0  0.375 1 0  0.875 1 0  0.375 0 0  0.125 1 0  2 0.375 0  2 0.625 0  2 0.875 0  1.875 1 0  1.125 1 0  0 0.375 0  1.0625 0.8940188709769393 0  0.7114206267051376 0.3183251991255057 0  0.1475299223289482 0.4377632092133468 0  1.3125 0.8877418109007456 0  0.9234752109127659 0.7437230339863174 0  0.7221107865264482 0.7076560080572618 0  0.4223710317460317 0.7591765873015873 0  1.9 0.4375 0  1.897595639002155 0.5663469775965522 0  1.152785554711046 0.7393088737226952 0  0.3461782929634525 0.3037021953089684 0  0.3125 0.09375 0  1.401781725111504 0.1121448037276411 0  1.424245257886164 0.8990549890503938 0  1.1294483650248 0.3105690707738273 0  1.0625 0.09621099564344943 0  0.9623305291843423 0.2460686178531891 0  1.5625 0.9044501632644213 0  1.5625 0.0955498367355786 0  0.9003858142570526 0.5621128987007222 0  1.098101493637888 0.5258714973841982 0  0.8036076548228382 0.1008534602376067 0  0.2633928571428572 0.8876488095238095 0  0.414678367247429 0.4321423233700297 0  0.5396363551523156 0.6419112638953035 0  0.6056081230888789 0.484382863312224 0  1.106567824229797 0.4126810507727962 0  0.1875 0.0876953125 0  0.9383159712027753 0.413228628128575 0  0.3318231182251389 0.6132441360004393 0  0.9572003535518292 0.9033403130166413 0  0.8139158579157988 0.7578108536231927 0  0.7935037642338374 0.3782960990749717 0  0.4375 0.07788798159182841 0  0.4651801166362056 0.2329884415152182 0  0.1001277561102753 0.1384033937676143 0  0.08086590340834321 0.5625 0  0.2807001372068105 0.2257861740668578 0  1.758200755851936 0.7804807893682326 0  1.758200755851936 0.2195192106317675 0  1.299092295317702 0.09234276509693498 0  0.7762437823864172 0.8989551585519843 0  0.2393092484544073 0.4725760570540382 0  0.2196974308038731 0.6427328796636128 0  0.4666005291005291 0.9067460317460317 0  0.2102535460314111 0.2890572018230581 0  0.6382336924197988 0.755866356365922 0  1.9291108126569 0.1875 0  1.906843116591586 0.09236830990344484 0  1.777416823280135 0.9100024283712178 0  1.9138312885794 0.7844466473254866 0  1.8125 0.0708891873430996 0  0.2461716367581515 0.7930466367581516 0  0.07073252688172042 0.8125 0  0.0924753097241701 0.9078102849914793 0  1.297145258384448 0.1842975012698211 0  0.09819481312894854 0.2309007919811409 0  0.5788095038920291 0.07974076399829848 0  0.6875 0.9298367502372836 0  1.159540395319097 0.224578200320709 0  0.3363453352414483 0.7869010181686933 0  0.1875 0.9355758238725954 0  1.907485449900501 0.9074854499005005 0  0.3365978736998687 0.3912980497953831 0  0.4965491124765318 0.8247407834101382 0  0.9946582774249307 0.1639483681638828 0  0.9375 0.06326048615849841 0  0.8756881111497786 0.2292784388051621 0  1.1875 0.06393061008153887 0  0.6821274179621576 0.523552776852952 0  0.0625 0 0  0.5677475274357409 0.5611055692012266 0  0.5431475737312214 0.3043571416506436 0  0.4998088888478967 0.412671387743341 0  1.271923827441172 0.8073033768729405 0  1.144079787833831 0.9173285690114767 0  1.234477051037206 0.9178299606103488 0  1.11568375451864 0.8128144767256547 0  0.2474314797351809 0.1437501713946527 0  0.7930672890878172 0.2885047831775271 0  0.9449597450104197 0.8225551103442099 0  1.043994947280002 0.5867037567637329 0  0.2661087310150958 0.5516763929432742 0  0.4198281682230962 0.5132360697563596 0  1.483727637086004 0.1192148509571048 0  1.644440015314982 0.1707099329264654 0  1.124945028809584 0.1498679909491655 0  0.08012249108436301 0.3914377241544016 0  0.07901604382675644 0.4813290943875176 0  0.3285590277777778 0.9345238095238095 0  0.6799566840338123 0.206475911465158 0  0.7241673677530416 0.0784051173135977 0  0.4845379644176867 0.6970096546299323 0  0.366380574163789 0.6838615459620285 0  0.4867321497264777 0.5801966852258245 0  0.7640395474301764 0.6384382550415005 0  1.083199256901168 0.70593594575104 0  1.217075462191161 0.2797909931313028 0  1.643211298668676 0.0801279947560528 0  0.2105033408829201 0.721840481232267 0  0.8507270715979697 0.9249410208158915 0  0.07704872765442947 0.6411254848194414 0  0.6507773567498768 0.6806195200803355 0  0.9470733641222151 0.3386397658003765 0  1.030016179406472 0.4307736739285035 0  1.03199791498579 0.2771711273800254 0  1.4375 0 0  1.922832672853832 0.641006945484222 0  1.921673956988018 0.3609283311808291 0  0.9187936842128259 0.4898579303104234 0  0.8665902213579503 0.3912835464622645 0  0.7761386570796214 0.4503340206716026 0  0.132433467016868 0.7686012208749837 0  0.06518654876787751 0.7144311380370932 0  0.1487479641258986 0.6193056461319167 0  0.8279502161691989 0.1716314414649491 0  0.6175572280885101 0.8292314698563852 0  0.5873000072503324 0.1548333596669089 0  0.7698980460572555 0.8216618727332811 0  1.617763733598075 0.8525091591744496 0  0.5389877149849908 0.2306291033910286 0  1.849558996495297 0.6311079473036412 0  0.9728538111582382 0.5705339341326484 0  1.227062399538353 0.7475356453203694 0  0 0.1875 0  0.443314335737747 0.1642024576913928 0  1.853040416346226 0.3828545874152978 0  0.09375 0.06582068612416771 0  0.9121142119372541 0.6342459506530548 0  0.9934916381906801 0.7169599264150737 0  0.5082308517183852 0.07301033393845233 0  1.172481853825469 0.3875628783986241 0  1.868941529029428 0.226762445294308 0  1.844682638217621 0.7671800450043913 0  0.182919661283971 0.3538607419778741 0  0.05848414090509828 0.2887104402582971 0  0.6353884404914405 0.3218412683149566 0  0.8315333923454293 0.5352240005881821 0  0.8672217446539785 0.07018932011534394 0  1.80101311233155 0.279568722103581 0  0.3976221841274197 0.2547864263727552 0  1.492394819430708 0.9268095616423531 0  1.4375 1 0  0.4002480551263502 0.3646742808612027 0  1.015481490182062 0.8389584788939451 0  1.509525788708048 0.8594387943586543 0  0.2766954419783539 0.3104917240985169 0  0.8125 0 0  1.805618820464136 0.6841482116329501 0  2 0.3125 0  1.930663945015785 0.2598514654979807 0  1.938182498840598 0.7203621302075108 0  0.6760366889878674 0.3770014904269648 0  0.3126876338191231 0.1613332441205846 0  1.1875 1 0  0.7493690982952937 0.1410071076122945 0  0.6160903533663544 0.9291449763223876 0  0.5625 1 0  0.5258727283183805 0.9381254313319531 0  1.6875 0 0  1.696421098492074 0.8130534698261189 0  1.718577535532562 0.9412525626128655 0  1.631092039627162 0.9277993206216887 0  0.3942649591936683 0.5794663232701421 0  1.8125 1 0  1.84298398567314 0.9362797123674823 0  0 0.4375 0  1.427358784481205 0.7868536729492591 0  1.373042687890315 0.8472701648767201 0  1.745050180582884 0.06736044428808222 0  1.778877583539759 0.1294678803835219 0  0.6425024682324467 0.06338694444594203 0  1.9375 0 0  2 0.0625 0  0.4016108198193036 0.9345238095238095 0  1.753952463834889 0.8472973587166729 0  2 0.9375 0  1.9375 1 0  0.7022683878270706 0.770204395751818 0  0 0.9375 0  0.0625 1 0  1.139607537040982 0.4720641816945025 0  1.224499120027803 0.2144711882194641 0  0.7863124194829649 0.699238164101231 0  0.4285125855365842 0.8269720812914013 0  0.5834046093203372 0.6951525685470986 0  1.003603681286273 0.06606493071244557 0  1.126304287524467 0.08512142223151367 0  0.7085525522902785 0.5999823290361459 0  1.92891531307153 0.5024854990855518 0  1.864281148433066 0.510397690476507 0  1.7918725
[...]
<PointData  Scalars="f_80814"> 
<DataArray  type="Float64"  Name="f_80814"  format="ascii">0.0000000000000000e+00  0.0000000000000000e+00  0.0000000000000000e+00  0.0000000000000000e+00  0.0000000000000000e+00  0.0000000000000000e+00  0.0000000000000000e+00  0.0000000000000000e+00  0.0000000000000000e+00  0.0000000000000000e+00  0.0000000000000000e+00  0.0000000000000000e+00  0.0000000000000000e+00  0.0000000000000000e+00  0.0000000000000000e+00  0.0000000000000000e+00  0.0000000000000000e+00  0.0000000000000000e+00  0.0000000000000000e+00  0.0000000000000000e+00  0.0000000000000000e+00  0.0000000000000000e+00  0.0000000000000000e+00  0.0000000000000000e+00  0.0000000000000000e+00  0.0000000000000000e+00  0.0000000000000000e+00  0.0000000000000000e+00  0.0000000000000000e+00  0.0000000000000000e+00  0.0000000000000000e+00  7.7984232383186622e-02  0.0000000000000000e+00  0.0000000000000000e+00  0.0000000000000000e+00  0.0000000000000000e+00  0.0000000000000000e+00  5.2448615408016275e-01  5.0253279204893808e-01  2.4562413823991150e-03  -1.2780137425245035e-04  1.6428049609355797e-01  8.7059927313008462e-02  0.0000000000000000e+00  0.0000000000000000e+00  0.0000000000000000e+00  0.0000000000000000e+00  0.0000000000000000e+00  0.0000000000000000e+00  0.0000000000000000e+00  5.2906093850862259e-03  1.1312558756816003e-01  2.0763771361219263e-01  4.0676230898998827e-01  4.4551777928886405e-01  -9.5951215721397698e-05  2.7674789065767474e-01  4.1787978763429603e-05  4.4386768881722362e-03  -5.4015129452068772e-05  6.8504666521942675e-02  7.3222982006652115e-02  2.7655125759975552e-01  2.6134951973336862e-01  1.9576773432020167e-01  4.0114604291871962e-02  4.7876425098131569e-03  3.1209009439796798e-01  -7.4167938756677154e-02  3.1824868260548195e-01  5.9362650529836614e-01  2.8351320060217417e-02  2.1122899763371253e-04  0.0000000000000000e+00  -1.0048846708566488e-01  -1.5193906565353286e-05  4.1250542636915005e-01  0.0000000000000000e+00  0.0000000000000000e+00  3.9170209737010304e-02  3.3995704690170736e-03  7.3171745102644410e-03  0.0000000000000000e+00  0.0000000000000000e+00  3.5318897574957799e-02  4.5434587922273346e-02  1.7715229946535158e-01  0.0000000000000000e+00  0.0000000000000000e+00  0.0000000000000000e+00  0.0000000000000000e+00  5.5618743248765042e-02  5.0562135157480359e-01  1.0948930145905181e-01  1.2620446631383575e-01  0.0000000000000000e+00  0.0000000000000000e+00  0.0000000000000000e+00  0.0000000000000000e+00  0.0000000000000000e+00  0.0000000000000000e+00  0.0000000000000000e+00  0.0000000000000000e+00  0.0000000000000000e+00  0.0000000000000000e+00  0.0000000000000000e+00  0.0000000000000000e+00  0.0000000000000000e+00  0.0000000000000000e+00  0.0000000000000000e+00  7.3226684723824931e-02  3.5865160555395559e-01  -2.1582335391788616e-05  -1.7304028027073171e-01  4.0381735920399270e-01  3.5441442138738360e-01  1.8006103463896500e-02  7.8475433489970847e-04  5.8192230312377068e-04  1.4558234917247883e-02  4.4256867761012777e-03  9.3239789694240073e-05  -2.0931635666209442e-01  -2.0437528230372154e-01  9.6479260951508342e-02  7.8321521671401204e-02  3.5093003593120575e-01  -6.6601342728518489e-02  -6.7757079258587732e-02  5.7317386859450259e-01  1.6264122832320488e-01  1.7672099594824342e-01  8.5102573541282283e-05  2.4177005479682410e-02  1.1231970333766390e-01  2.2597132589976368e-01  1.3912946831952730e-01  -7.6355503280980635e-05  5.1943526855650202e-01  4.8170189411584075e-03  1.5815234801302397e-01  3.9537754082920429e-01  5.1558814549852139e-01  5.6027969456432774e-03  3.1078852605676246e-02  -1.3005566242592709e-05  3.2296272086810158e-05  7.3323439635997537e-04  2.1889070317889572e-02  2.2601745151467564e-02  -1.3951024818059304e-01  1.6865527755227899e-01  5.2616900624586260e-04  5.9314019659230648e-04  1.3182728965295272e-02  2.3721034895605404e-04  2.0004917171539208e-01  6.8197936560538130e-02  9.3214370964307416e-02  7.6150022965982542e-02  4.5887687031274861e-02  6.6903970366965784e-02  9.2757117376742013e-05  -7.3892061070902055e-05  7.1292066404390075e-07  -4.1540130162542216e-01  2.0107764058254361e-05  4.2470979676012689e-02  8.5082250867180381e-02  -4.6400270888877267e-03  1.3957379733129393e-03  -1.9484921285391302e-04  9.3358623171260147e-02  4.8874566515596466e-03  4.1298716684726455e-02  2.1731481968510566e-01  1.0599343587556645e-01  3.9353665436941543e-01  -4.4680179309953459e-02  3.7351267101380731e-01  0.0000000000000000e+00  1.5972020369880316e-01  1.0109028026305654e-01  7.6447733755765496e-02  -3.3761515914101597e-01  -2.0672641977122000e-02  -8.6084845607279775e-02  -4.7568876861401139e-03  9.4892906782532172e-05  4.3884300133345139e-01  2.8316773146540691e-01  2.9158139780031045e-01  6.6337411245187897e-04  2.3879389538880847e-02  -1.7904266549207379e-01  3.9554455764906071e-03  -7.7763066595191114e-03  8.2750667240304355e-05  -7.2125804274610693e-06  4.4968949174049606e-04  2.2306332852868876e-01  1.1033773787940029e-01  4.9159477825389493e-02  6.7903439097803343e-03  6.2500629064501809e-02  4.7345088873416236e-01  9.3243750778743806e-02  -3.9407581272333531e-01  1.7630284911619204e-03  -3.3319843682147259e-04  1.3814493590593271e-01  9.0018281157149148e-05  2.6295229856510594e-01  4.6868112522727157e-01  3.0376830273521721e-01  2.5908591773563017e-01  0.0000000000000000e+00  -9.5948013582897226e-03  -6.2983655402207165e-03  5.7030911429955256e-01  5.6999363038199080e-01  5.3160107892646302e-01  1.4831507674654658e-04  -3.9053225114989773e-05  1.1825014709533607e-05  3.0253982574650085e-01  1.2745523589960261e-01  9.0363887138320151e-02  2.8106559210118287e-01  -2.1370767269276641e-02  8.0141282207818423e-02  -2.7865872387468423e-03  4.7489780276512483e-01  -4.0047883850541344e-01  0.0000000000000000e+00  1.6641538354688654e-02  -1.2608368419559190e-03  -9.3741483476065839e-06  5.2835490062034285e-01  3.5783673951960060e-01  2.0321562138436250e-02  -2.8315554810523913e-01  3.2965047159147283e-02  2.5124187205883993e-02  1.8819665237080290e-04  8.1679199494883793e-06  2.3869515938539398e-01  5.9532208511292051e-01  1.3136757755352224e-01  6.3620738475597361e-03  1.1350474885296422e-02  -1.0702406548783513e-01  0.0000000000000000e+00  1.6471297024544324e-02  1.7900257069983339e-01  -1.3305857015573888e-01  2.4103783960175419e-04  0.0000000000000000e+00  -3.4894631242560095e-03  0.0000000000000000e+00  1.6756210242876424e-02  6.2526716089821134e-03  3.3413938862632209e-01  8.8239184532047676e-04  0.0000000000000000e+00  2.1322123840887333e-01  5.2578778517890924e-02  0.0000000000000000e+00  1.8646181450268019e-02  0.0000000000000000e+00  2.1424910091233696e-02  3.7895810851119774e-02  -1.2489004794557013e-05  1.3343444408449196e-02  0.0000000000000000e+00  6.2006178567529699e-02  0.0000000000000000e+00  0.0000000000000000e+00  -3.2912979819688076e-01  5.1623796487634495e-02  7.0960370075230858e-02  5.6349498515537590e-02  0.0000000000000000e+00  0.0000000000000000e+00  3.8270366546679802e-03  5.6371257282462187e-02  0.0000000000000000e+00  0.0000000000000000e+00  2.7281690370906880e-01  0.0000000000000000e+00  0.0000000000000000e+00  -7.1683668656253960e-02  -3.0152767428168070e-01  4.5008205474112917e-01  1.3521519875040137e-02  1.5304050979463263e-01  8.0308659203017982e-02  6.7978404061441377e-03  4.0175143373070371e-01  -3.5929056969283700e-03  1.6790680757998547e-04  0.0000000000000000e+00  0.0000000000000000e+00  -1.0656866154578991e-01  2.8088965198982202e-01  -1.0454138020247428e-01  1.4622171936270451e-01  -3.3030635656557433e-01  0.0000000000000000e+00  -3.3706717639561257e-01  0.0000000000000000e+00  2.8059997928897035e-03  -9.4027018756160483e-05  3.5997334617308410e-03  2.4644887600640364e-01  -8.6913557562220592e-02  -3.0717919537060318e-01  7.6463073488077754e-05  0.0000000000000000e+00  6.3947529965716280e-05  0.0000000000000000e+00  0.0000000000000000e+00  0.0000000000000000e+00  0.0000000000000000e+00  0.0000000000000000e+00  0.0000000000000000e+00  0.0000000000000000e+00  0.0000000000000000e+00  0.0000000000000000e+00  0.0000000000000000e+00  0.0000000000000000e+00  0.0000000000000000e+00  0.0000000000000000e+00  0.0000000000000000e+00  0.0000000000000000e+00  0.0000000000000000e+00  0.0000000000000000e+00  0.0000000000000000e+00  0.0000000000000000e+00  0.0000000000000000e+00  0.0000000000000000e+00  0.0000000000000000e+00  0.0000000000000000e+00  0.0000000000000000e+00  0.0000000000000000e+00  0.0000000000000000e+00  0.0000000000000000e+00  0.0000000000000000e+00  8.0166096811054952e-02  3.0213325071284046e-04  0.0000000000000000e+00  1.8682983605919367e-02  2.6046808504209895e-01  5.4759656878109075e-01  7.3945023651628999e-02  0.0000000000000000e+00  3.5234292974366233e-01  1.1452103978949395e-01  5.3649508746942076e-05  7.9523267966002509e-02  2.9944492451073894e-03  2.6001979310293166e-01  3.4889913220097717e-04  2.2566390645325628e-02  4.4314316218962486e-02  -8.7360818063889137e-02  -7.7020275992440546e-02  4.6777954000837629e-01  0.0000000000000000e+00  3.5256082395485477e-01  4.8468077303758600e-01  4.3400466939997029e-01  2.7867390712673799e-03  1.7633082323499399e-01  -1.6292776598845427e-01  1.0195843697528006e-01  -2.5344974517866647e-01  1.9232709854560659e-01  6.4564535961554509e-02  1.1234349376213162e-04  2.9159802825573766e-01  2.6556947701903897e-02  -7.9994631918661102e-02  6.5814863110833226e-04  1.6596343131997740e-01  3.8601335138659881e-01  -2.9274078422309211e-04  -2.2667554732508807e-01  -1.0253911561336239e-01  9.2734975066819117e-02  1.0656766434986067e-01  8.1018359797390652e-02  -2.2270828026544866e-02  6.1121777396106615e-02  -6.0165223203911440e-02  -8.5074143893450624e-02  -1.2133933569244133e-04  4.6403240360245924e-05  3.3084700197568989e-01  4.4121269193865648e-01  2.5039418763688071e-01  -3.7297376548077610e-01  3.5288533994998666e-01  -2.2946858963065478e-01  8.2011062633880853e-03  -3.5381113345410525e-02  6.0900943738756888e-02  -1.2938125414433410e-05  0.0000000000000000e+00  2.8374027938645248e-02  2.6672589672495560e-06  3.6192047704430269e-02  4.2892050360913847e-01  -8.2326629643252724e-03  1.5534938163556552e-02  -6.8891816068146327e-03  -7.7199212002209479e-05  4.3076488530113734e-02  -5.8715826905838479e-04  2.2452018042553840e-01  2.9353903064781445e-01  3.5916826945905367e-01  -7.4271357962322787e-02  2.0282478918551394e-02  5.9752462374450255e-02  1.8967729463528596e-01  1.9067120357279255e-01  5.4821468452371536e-01  -4.7187478938257239e-05  6.4576162390456737e-06  4.5538462620104666e-03  0.0000000000000000e+00  -1.5520196686669702e-05  7.6939333671572546e-02  1.8207612367226093e-03  -5.8402367957662266e-02  1.8019259246572045e-03  -8.4938388086088109e-04  8.0576655498052093e-04  1.4263033617623819e-01  4.9309636037220793e-04  2.6599526723884059e-02  1.4893304141783442e-01  -1.9040674019217713e-01  6.0857288629807958e-02  0.0000000000000000e+00  2.6119013198274473e-05  3.7317952601463272e-01  4.5148902081447541e-02  3.4323153369131448e-01  -1.7869628203555593e-01  -6.6242567432641300e-02  2.4979044942076270e-01  1.9915469449490833e-01  4.4834442592720630e-01  -1.0445791360982606e-01  1.3916515109184208e-01  -2.3397106770379300e-01  5.5977194358050664e-01  3.4526014035589406e-03  1.2359702124955295e-02  5.7737542663912518e-03  3.2239263672127677e-01  4.5375294783893955e-01  2.9820157802830417e-02  5.7548636747847182e-01  4.6538549196458256e-01  4.2874342933508153e-01  1.0662224806574298e-06  -1.0337707286887098e-05  4.4537388032840813e-01  -6.9503503645403311e-05  -8.3796951987609794e-02  -3.9608417850713961e-05  5.2462739803281266e-01  5.6036558604980025e-01  1.1630479236637908e-04  9.1303749057153089e-04  -5.3086190902487715e-02  -1.2386478035857814e-05  1.6221546013946282e-05  3.5734828605290925e-02  1.4415505397954919e-02  9.0172139128491860e-04  </DataArray> 
</PointData> 
</Piece>
</UnstructuredGrid>
</VTKFile>