<?xml version="1.0"?>
<VTKFile type="UnstructuredGrid"  version="0.1"  >
<UnstructuredGrid>
<Piece  NumberOfPoints="441" NumberOfCells="800">
<Points>
<DataArray  type="Float64"  NumberOfComponents="3"  format="ascii">0 0 0  0.05 0 0  0.1 0 0  0.15 0 0  0.2 0 0  0.25 0 0  0.3 0 0  0.35 0 0  0.4 0 0  0.45 0 0  0.5 0 0  0.55 0 0  0.6 0 0  0.65 0 0  0.7 0 0  0.75 0 0  0.8 0 0  0.85 0 0  0.9 0 0  0.95 0 0  1 0 0  0 0.05 0  0.05 0.05 0  0.1 0.05 0  0.15 0.05 0  0.2 0.05 0  0.25 0.05 0  0.3 0.05 0  0.35 0.05 0  0.4 0.05 0  0.45 0.05 0  0.5 0.05 0  0.55 0.05 0  0.6 0.05 0  0.65 0.05 0  0.7 0.05 0  0.75 0.05 0  0.8 0.05 0  0.85 0.05 0  0.9 0.05 0  0.95 0.05 0  1 0.05 0  0 0.1 0  0.05 0.1 0  0.1 0.1 0  0.15 0.1 0  0.2 0.1 0  0.25 0.1 0  0.3 0.1 0  0.35 0.1 0  0.4 0.1 0  0.45 0.1 0  0.5 0.1 0  0.55 0.1 0  0.6 0.1 0  0.65 0.1 0  0.7 0.1 0  0.75 0.1 0  0.8 0.1 0  0.85 0.1 0  0.9 0.1 0  0.95 0.1 0  1 0.1 0  0 0.15 0  0.05 0.15 0  0.1 0.15 0  0.15 0.15 0  0.2 0.15 0  0.25 0.15 0  0.3 0.15 0  0.35 0.15 0  0.4 0.15 0  0.45 0.15 0  0.5 0.15 0  0.55 0.15 0  0.6 0.15 0  0.65 0.15 0  0.7 0.15 0  0.75 0.15 0  0.8 0.15 0  0.85 0.15 0  0.9 0.15 0  0.95 0.15 0  1 0.15 0  0 0.2 0  0.05 0.2 0  0.1 0.2 0  0.15 0.2 0  0.2 0.2 0  0.25 0.2 0  0.3 0.2 0  0.35 0.2 0  0.4 0.2 0  0.45 0.2 0  0.5 0.2 0  0.55 0.2 0  0.6 0.2 0  0.65 0.2 0  0.7 0.2 0  0.75 0.2 0  0.8 0.2 0  0.85 0.2 0  0.9 0.2 0  0.95 0.2 0  1 0.2 0  0 0.25 0  0.05 0.25 0  0.1 0.25 0  0.15 0.25 0  0.2 0.25 0  0.25 0.25 0  0.3 0.25 0  0.35 0.25 0  0.4 0.25 0  0.45 0.25 0  0.5 0.25 0  0.55 0.25 0  0.6 0.25 0  0.65 0.25 0  0.7 0.25 0  0.75 0.25 0  0.8 0.25 0  0.85 0.25 0  0.9 0.25 0  0.95 0.25 0  1 0.25 0  0 0.3 0  0.05 0.3 0  0.1 0.3 0  0.15 0.3 0  0.2 0.3 0  0.25 0.3 0  0.3 0.3 0  0.35 0.3 0  0.4 0.3 0  0.45 0.3 0  0.5 0.3 0  0.55 0.3 0  0.6 0.3 0  0.65 0.3 0  0.7 0.3 0  0.75 0.3 0  0.8 0.3 0  0.85 0.3 0  0.9 0.3 0  0.95 0.3 0  1 0.3 0  0 0.35 0  0.05 0.35 0  0.1 0.35 0  0.15 0.35 0  0.2 0.35 0  0.25 0.35 0  0.3 0.35 0  0.35 0.35 0  0.4 0.35 0  0.45 0.35 0  0.5 0.35 0  0.55 0.35 0  0.6 0.35 0  0.65 0.35 0  0.7 0.35 0  0.75 0.35 0  0.8 0.35 0  0.85 0.35 0  0.9 0.35 0  0.95 0.35 0  1 0.35 0  0 0.4 0  0.05 0.4 0  0.1 0.4 0  0.15 0.4 0  0.2 0.4 0  0.25 0.4 0  0.3 0.4 0  0.35 0.4 0  0.4 0.4 0  0.45 0.4 0  0.5 0.4 0  0.55 0.4 0  0.6 0.4 0  0.65 0.4 0  0.7 0.4 0  0.75 0.4 0  0.8 0.4 0  0.85 0.4 0  0.9 0.4 0  0.95 0.4 0  1 0.4 0  0 0.45 0  0.05 0.45 0  0.1 0.45 0  0.15 0.45 0  0.2 0.45 0  0.25 0.45 0  0.3 0.45 0  0.35 0.45 0  0.4 0.45 0  0.45 0.45 0  0.5 0.45 0  0.55 0.45 0  0.6 0.45 0  0.65 0.45 0  0.7 0.45 0  0.75 0.45 0  0.8 0.45 0  0.85 0.45 0  0.9 0.45 0  0.95 0.45 0  1 0.45 0  0 0.5 0  0.05 0.5 0  0.1 0.5 0  0.15 0.5 0  0.2 0.5 0  0.25 0.5 0  0.3 0.5 0  0.35 0.5 0  0.4 0.5 0  0.45 0.5 0  0.5 0.5 0  0.55 0.5 0  0.6 0.5 0  0.65 0.5 0  0.7 0.5 0  0.75 0.5 0  0.8 0.5 0  0.85 0.5 0  0.9 0.5 0  0.95 0.5 0  1 0.5 0  0 0.55 0  0.05 0.55 0  0.1 0.55 0  0.15 0.55 0  0.2 0.55 0  0.25 0.55 0  0.3 0.55 0  0.35 0.55 0  0.4 0.55 0  0.45 0.55 0  0.5 0.55 0  0.55 0.55 0  0.6 0.55 0  0.65 0.55 0  0.7 0.55 0  0.75 0.55 0  0.8 0.55 0  0.85 0.55 0  0.9 0.55 0  0.95 0.55 0  1 0.55 0  0 0.6 0  0.05 0.6 0  0.1 0.6 0  0.15 0.6 0  0.2 0.6 0  0.25 0.6 0  0.3 0.6 0  0.35 0.6 0  0.4 0.6 0  0.45 0.6 0  0.5 0.6 0  0.55 0.6 0  0.6 0.6 0  0.65 0.6 0  0.7 0.6 0  0.75 0.6 0  0.8 0.6 0  0.85 0.6 0  0.9 0.6 0  0.95 0.6 0  1 0.6 0  0 0.65 0  0.05 0.65 0  0.1 0.65 0  0.15 0.65 0  0.2 0.65 0  0.25 0.65 0  0.3 0.65 0  0.35 0.65 0  0.4 0.65 0  0.45 0.65 0  0.5 0.65 0  0.55 0.65 0  0.6 0.65 0  0.65 0.65 0  0.7 0.65 0  0.75 0.65 0  0.8 0.65 0  0.85 0.65 0  0.9 0.65 0  0.95 0.65 0  1 0.65 0  0 0.7 0  0.05 0.7 0  0.1 0.7 0  0.15 0.7 0  0.2 0.7 0  0.25 0.7 0  0.3 0.7 0  0.35 0.7 0  0.4 0.7 0  0.45 0.7 0  0.5 0.7 0  0.55 0.7 0  0.6 0.7 0  0.65 0.7 0  0.7 0.7 0  0.75 0.7 0  0.8 0.7 0  0.85 0.7 0  0.9 0.7 0  0.95 0.7 0  1 0.7 0  0 0.75 0  0.05 0.75 0  0.1 0.75 0  0.15 0.75 0  0.2 0.75 0  0.25 0.75 0  0.3 0.75 0  0.35 0.75 0  0.4 0.75 0  0.45 0.75 0  0.5 0.75 0  0.55 0.75 0  0.6 0.75 0  0.65 0.75 0  0.7 0.75 0  0.75 0.75 0  0.8 0.75 0  0.85 0.75 0  0.9 0.75 0  0.95 0.75 0  1 0.75 0  0 0.8 0  0.05 0.8 0  0.1 0.8 0  0.15 0.8 0  0.2 0.8 0  0.25 0.8 0  0.3 0.8 0  0.35 0.8 0  0.4 0.8 0  0.45 0.8 0  0.5 0.8 0  0.55 0.8 0  0.6 0.8 0  0.65 0.8 0  0.7 0.8 0  0.75 0.8 0  0.8 0.8 0  0.85 0.8 0  0.9 0.8 0  0.95 0.8 0  1 0.8 0  0 0.85 0  0.05 0.85 0  0.1 0.85 0  0.15 0.85 0  0.2 0.85 0  0.25 0.85 0  0.3 0.85 0  0.35 0.85 0  0.4 0.85 0  0.45 0.85 0  0.5 0.85 0  0.55 0.85 0  0.6 0.85 0  0.65 0.85 0  0.7 0.85 0  0.75 0.85 0  0.8 0.85 0  0.85 0.85 0  0.9 0.85 0  0.95 0.85 0  1 0.85 0  0 0.9 0  0.05 0.9 0  0.1 0.9 0  0.15 0.9 0  0.2 0.9 0  0.25 0.9 0  0.3 0.9 0  0.35 0.9 0  0.4 0.9 0  0.45 0.9 0  0.5 0.9 0  0.55 0.9 0  0.6 0.9 0  0.65 0.9 0  0.7 0.9 0  0.75 0.9 0  0.8 0.9 0  0.85 0.9 0  0.9 0.9 0  0.95 0.9 0  1 0.9 0  0 0.95 0  0.05 0.95 0  0.1 0.95 0  0.15 0.95 0  0.2 0.95 0  0.25 0.95 0  0.3 0.95 0  0.35 0.95 0  0.4 0.95 0  0.45 0.95 0  0.5 0.95 0  0.55 0.95 0  0.6 0.95 0  0.65 0.95 0  0.7 0.95 0  0.75 0.95 0  0.8 0.95 0  0.85 0.95 0  0.9 0.95 0  0.95 0.95 0  1 0.95 0  0 1 0  0.05 1 0  0.1 1 0  0.15 1 0  0.2 1 0  0.25 1 0  0.3 1 0  0.35 1 0  0.4 1 0  0.45 1 0  0.5 1 0  0.55 1 0  0.6 1 0  0.65 1 0  0.7 1 0  0.75 1 0  0.8 1 0  0.85 1 0  0.9 1 0  0.95 1 0  1 1 0  </DataArray>
</Points>
<Cells>
[...]
<PointData  Scalars="f_25"> 
<DataArray  type="Float64"  Name="f_25"  format="ascii">0.0000000000000000e+00  0.0000000000000000e+00  0.0000000000000000e+00  0.0000000000000000e+00  0.0000000000000000e+00  0.0000000000000000e+00  0.0000000000000000e+00  0.0000000000000000e+00  0.0000000000000000e+00  0.0000000000000000e+00  0.0000000000000000e+00  0.0000000000000000e+00  0.0000000000000000e+00  0.0000000000000000e+00  0.0000000000000000e+00  0.0000000000000000e+00  0.0000000000000000e+00  0.0000000000000000e+00  0.0000000000000000e+00  0.0000000000000000e+00  0.0000000000000000e+00  0.0000000000000000e+00  5.5048681319345680e-06  1.4461237297965106e-05  2.7746376367454334e-05  4.6335095881083119e-05  7.1218974778252482e-05  1.0332443352903440e-04  1.4341952899289261e-04  1.9200674990891165e-04  2.4919926260135746e-04  3.1457403012456758e-04  3.8698674018575120e-04  4.6431898197488196e-04  5.4310496289203052e-04  6.1794883730758525e-04  6.8058623553931175e-04  7.1834705284794709e-04  7.1159563862692508e-04  6.2932696702993804e-04  4.2105771067604055e-04  0.0000000000000000e+00  0.0000000000000000e+00  1.4461237297965107e-05  3.7446671933196922e-05  7.1286760053851692e-05  1.1846413630866918e-04  1.8147274715986153e-04  2.6262899240995206e-04  3.6384196377703908e-04  4.8634395904350697e-04  6.3037649763620198e-04  7.9481499027544598e-04  9.7669309954939937e-04  1.1705510924242229e-03  1.3674747196422731e-03  1.5536026684043094e-03  1.7077455969473467e-03  1.7975499661514692e-03  1.7733012448876799e-03  1.5578888855189627e-03  1.0304781065013403e-03  0.0000000000000000e+00  0.0000000000000000e+00  2.7746376367454355e-05  7.1286760053851706e-05  1.3500393714852677e-04  2.2353601184522829e-04  3.4151822083059509e-04  4.9323850932153461e-04  6.8221308641909549e-04  9.1068420039049037e-04  1.1790310998228376e-03  1.4850619094579683e-03  1.8231126336501842e-03  2.1828116717782799e-03  2.5472634085383313e-03  2.8902479860751281e-03  3.1718058585985440e-03  3.3312468331686009e-03  3.2761574821990927e-03  2.8653461074472663e-03  1.8829009366769164e-03  0.0000000000000000e+00  0.0000000000000000e+00  4.6335095881083146e-05  1.1846413630866928e-04  2.2353601184522834e-04  3.6911133982941329e-04  5.6273224147838875e-04  8.1135877601391803e-04  1.1206755775187711e-03  1.4942690765093532e-03  1.9326585135427225e-03  2.4321263049489621e-03  2.9832260896995827e-03  3.5687381030267483e-03  4.1606762366023673e-03  4.7157103439999454e-03  5.1680287270201835e-03  5.4182066914072553e-03  5.3160553265550756e-03  4.6347280637100445e-03  3.0327006791833833e-03  0.0000000000000000e+00  0.0000000000000000e+00  7.1218974778252482e-05  1.8147274715986164e-04  3.4151822083059515e-04  5.6273224147838897e-04  8.5645483461066669e-04  1.2331344359603517e-03  1.7012777965742765e-03  2.2662020244562909e-03  2.9285606192910960e-03  3.6825590724305838e-03  4.5136755298681181e-03  5.3955417412411546e-03  6.2853991303872883e-03  7.1172015547604191e-03  7.7909674352095648e-03  8.1563745469350711e-03  7.9878514521781307e-03  6.9476213777975642e-03  4.5324880259173493e-03  0.0000000000000000e+00  0.0000000000000000e+00  1.0332443352903445e-04  2.6262899240995228e-04  4.9323850932153461e-04  8.1135877601391803e-04  1.2331344359603517e-03  1.7734236749577346e-03  2.4442923738906249e-03  3.2532215414330838e-03  4.2009848922490789e-03  5.2790735823567414e-03  6.4664042834449917e-03  7.7248232235373792e-03  8.9925874059644684e-03  1.0174538352580319e-02  1.1127060773643406e-02  1.1635131768779014e-02  1.1377847153394878e-02  9.8778679294969762e-03  6.4294979499520555e-03  0.0000000000000000e+00  0.0000000000000000e+00  1.4341952899289272e-04  3.6384196377703941e-04  6.8221308641909560e-04  1.1206755775187707e-03  1.7012777965742765e-03  2.4442923738906249e-03  3.3661468836897472e-03  4.4769555599105046e-03  5.7775899368286534e-03  7.2561176593003629e-03  8.8832487148498441e-03  1.0606129146795349e-02  1.2339383007702528e-02  1.3951693311638605e-02  1.5245409738829234e-02  1.5925676574781954e-02  1.5554441855626563e-02  1.3483583771165358e-02  8.7605656332638091e-03  0.0000000000000000e+00  0.0000000000000000e+00  1.9200674990891173e-04  4.8634395904350767e-04  9.1068420039049091e-04  1.4942690765093534e-03  2.2662020244562917e-03  3.2532215414330869e-03  4.4769555599105072e-03  5.9506392478916896e-03  7.6752106708414675e-03  9.6345561230390085e-03  1.1789429286875758e-02  1.4069181072264387e-02  1.6359872835415706e-02  1.8486569922835368e-02  2.0186603526646252e-02  2.1069358055750543e-02  2.0556765593348372e-02  1.7797358729700674e-02  1.1545812549489550e-02  0.0000000000000000e+00  0.0000000000000000e+00  2.4919926260135762e-04  6.3037649763620274e-04  1.1790310998228382e-03  1.9326585135427234e-03  2.9285606192910965e-03  4.2009848922490798e-03  5.7775899368286551e-03  7.6752106708414709e-03  9.8948093334432913e-03  1.2415316919873748e-02  1.5185756272291477e-02  1.8114550869959379e-02  2.1054218547832071e-02  2.3778688132398036e-02  2.5949239293169914e-02  2.7063574948248129e-02  2.6380896609080995e-02  2.2814309127317051e-02  1.4780884124659652e-02  0.0000000000000000e+00  0.0000000000000000e+00  3.1457403012456780e-04  7.9481499027544641e-04  1.4850619094579685e-03  2.4321263049489629e-03  3.6825590724305838e-03  5.2790735823567414e-03  7.2561176593003655e-03  9.6345561230390137e-03  1.2415316919873751e-02  1.5571628988613412e-02  1.9039093933319307e-02  2.2702236574857770e-02  2.6375321083230884e-02  2.9774057455545778e-02  3.2473340869170725e-02  3.3844402280837453e-02  3.2962842118591427e-02  2.8477275532340106e-02  1.8427290500077992e-02  0.0000000000000000e+00  0.0000000000000000e+00  3.8698674018575147e-04  9.7669309954940024e-04  1.8231126336501851e-03  2.9832260896995822e-03  4.5136755298681164e-03  6.4664042834449900e-03  8.8832487148498441e-03  1.1789429286875753e-02  1.5185756272291471e-02  1.9039093933319300e-02  2.3270163227760519e-02  2.7737049674802807e-02  3.2211763422862590e-02  3.6345828698479382e-02  3.9619149185587128e-02  4.1264363147061459e-02  4.0156749033791420e-02  3.4657847899883458e-02  2.2399999977540379e-02  0.0000000000000000e+00  0.0000000000000000e+00  4.6431898197488196e-04  1.1705510924242231e-03  2.1828116717782799e-03  3.5687381030267465e-03  5.3955417412411503e-03  7.7248232235373714e-03  1.0606129146795340e-02  1.4069181072264375e-02  1.8114550869959365e-02  2.2702236574857766e-02  2.7737049674802797e-02  3.3048893566560870e-02  3.8364832671205426e-02  4.3268279127505013e-02  4.7138659620226488e-02  4.9062655381992178e-02  4.7705768938173417e-02  4.1131028141484560e-02  2.6550883950928823e-02  0.0000000000000000e+00  0.0000000000000000e+00  5.4310496289203031e-04  1.3674747196422731e-03  2.5472634085383305e-03  4.1606762366023656e-03  6.2853991303872822e-03  8.9925874059644615e-03  1.2339383007702518e-02  1.6359872835415686e-02  2.1054218547832057e-02  2.6375321083230874e-02  3.2211763422862576e-02  3.8364832671205391e-02  4.4516094226508048e-02  5.0180238814817944e-02  5.4635766607478785e-02  5.6823638125810809e-02  5.5201615347625702e-02  4.7540214234319055e-02  3.0645927494116675e-02  0.0000000000000000e+00  0.0000000000000000e+00  6.1794883730758481e-04  1.5536026684043087e-03  2.8902479860751246e-03  4.7157103439999393e-03  7.1172015547604096e-03  1.0174538352580307e-02  1.3951693311638589e-02  1.8486569922835351e-02  2.3778688132398019e-02  2.9774057455545764e-02  3.6345828698479361e-02  4.3268279127504992e-02  5.0180238814817937e-02  5.6532182452886305e-02  6.1508940522233012e-02  6.3917511964452611e-02  6.2027194905242077e-02  5.3347921027797132e-02  3.4333407037867553e-02  0.0000000000000000e+00  0.0000000000000000e+00  6.8058623553931142e-04  1.7077455969473463e-03  3.1718058585985419e-03  5.1680287270201757e-03  7.7909674352095570e-03  1.1127060773643392e-02  1.5245409738829213e-02  2.0186603526646234e-02  2.5949239293169911e-02  3.2473340869170711e-02  3.9619149185587101e-02  4.7138659620226460e-02  5.4635766607478757e-02  6.1508940522233033e-02  6.6868102364432386e-02  6.9415052885830844e-02  6.7275017873889759e-02  5.7766566472064816e-02  3.7099798318815699e-02  0.0000000000000000e+00  0.0000000000000000e+00  7.1834705284794676e-04  1.7975499661514677e-03  3.3312468331685974e-03  5.4182066914072492e-03  8.1563745469350607e-03  1.1635131768779000e-02  1.5925676574781934e-02  2.1069358055750519e-02  2.7063574948248112e-02  3.3844402280837432e-02  4.1264363147061438e-02  4.9062655381992143e-02  5.6823638125810788e-02  6.3917511964452653e-02  6.9415052885830886e-02  7.1966392075016178e-02  6.9632985401310549e-02  5.9663520488605640e-02  3.8210771153154292e-02  0.0000000000000000e+00  0.0000000000000000e+00  7.1159563862692454e-04  1.7733012448876782e-03  3.2761574821990884e-03  5.3160553265550669e-03  7.9878514521781185e-03  1.1377847153394859e-02  1.5554441855626544e-02  2.0556765593348344e-02  2.6380896609080964e-02  3.2962842118591400e-02  4.0156749033791378e-02  4.7705768938173375e-02  5.5201615347625681e-02  6.2027194905242077e-02  6.7275017873889773e-02  6.9632985401310576e-02  6.7229819848421746e-02  5.7437147630082112e-02  3.6638133262818007e-02  0.0000000000000000e+00  0.0000000000000000e+00  6.2932696702993739e-04  1.5578888855189608e-03  2.8653461074472620e-03  4.6347280637100349e-03  6.9476213777975521e-03  9.8778679294969588e-03  1.3483583771165340e-02  1.7797358729700653e-02  2.2814309127317033e-02  2.8477275532340085e-02  3.4657847899883430e-02  4.1131028141484532e-02  4.7540214234319034e-02  5.3347921027797125e-02  5.7766566472064837e-02  5.9663520488605667e-02  5.7437147630082140e-02  4.8869505844088341e-02  3.0984907645343271e-02  0.0000000000000000e+00  0.0000000000000000e+00  4.2105771067604006e-04  1.0304781065013386e-03  1.8829009366769125e-03  3.0327006791833772e-03  4.5324880259173398e-03  6.4294979499520469e-03  8.7605656332637987e-03  1.1545812549489541e-02  1.4780884124659636e-02  1.8427290500077981e-02  2.2399999977540355e-02  2.6550883950928798e-02  3.0645927494116664e-02  3.4333407037867546e-02  3.7099798318815699e-02  3.8210771153154299e-02  3.6638133262818014e-02  3.0984907645343274e-02  1.9453667812163355e-02  0.0000000000000000e+00  0.0000000000000000e+00  0.0000000000000000e+00  0.0000000000000000e+00  0.0000000000000000e+00  0.0000000000000000e+00  0.0000000000000000e+00  0.0000000000000000e+00  0.0000000000000000e+00  0.0000000000000000e+00  0.0000000000000000e+00  0.0000000000000000e+00  0.0000000000000000e+00  0.0000000000000000e+00  0.0000000000000000e+00  0.0000000000000000e+00  0.0000000000000000e+00  0.0000000000000000e+00  0.0000000000000000e+00  0.0000000000000000e+00  0.0000000000000000e+00  0.0000000000000000e+00  </DataArray> 
</PointData> 
</Piece>
</UnstructuredGrid>
</VTKFile>