<?xml version="1.0"?>
<VTKFile type="UnstructuredGrid"  version="0.1"  >
<UnstructuredGrid>
<Piece  NumberOfPoints="441" NumberOfCells="800">
<Points>
<DataArray  type="Float64"  NumberOfComponents="3"  format="ascii">0 0 0  0.05 0 0  0.1 0 0  0.15 0 0  0.2 0 0  0.25 0 0  0.3 0 0  0.35 0 0  0.4 0 0  0.45 0 0  0.5 0 0  0.55 0 0  0.6 0 0  0.65 0 0  0.7 0 0  0.75 0 0  0.8 0 0  0.85 0 0  0.9 0 0  0.95 0 0  1 0 0  0 0.05 0  0.05 0.05 0  0.1 0.05 0  0.15 0.05 0  0.2 0.05 0  0.25 0.05 0  0.3 0.05 0  0.35 0.05 0  0.4 0.05 0  0.45 0.05 0  0.5 0.05 0  0.55 0.05 0  0.6 0.05 0  0.65 0.05 0  0.7 0.05 0  0.75 0.05 0  0.8 0.05 0  0.85 0.05 0  0.9 0.05 0  0.95 0.05 0  1 0.05 0  0 0.1 0  0.05 0.1 0  0.1 0.1 0  0.15 0.1 0  0.2 0.1 0  0.25 0.1 0  0.3 0.1 0  0.35 0.1 0  0.4 0.1 0  0.45 0.1 0  0.5 0.1 0  0.55 0.1 0  0.6 0.1 0  0.65 0.1 0  0.7 0.1 0  0.75 0.1 0  0.8 0.1 0  0.85 0.1 0  0.9 0.1 0  0.95 0.1 0  1 0.1 0  0 0.15 0  0.05 0.15 0  0.1 0.15 0  0.15 0.15 0  0.2 0.15 0  0.25 0.15 0  0.3 0.15 0  0.35 0.15 0  0.4 0.15 0  0.45 0.15 0  0.5 0.15 0  0.55 0.15 0  0.6 0.15 0  0.65 0.15 0  0.7 0.15 0  0.75 0.15 0  0.8 0.15 0  0.85 0.15 0  0.9 0.15 0  0.95 0.15 0  1 0.15 0  0 0.2 0  0.05 0.2 0  0.1 0.2 0  0.15 0.2 0  0.2 0.2 0  0.25 0.2 0  0.3 0.2 0  0.35 0.2 0  0.4 0.2 0  0.45 0.2 0  0.5 0.2 0  0.55 0.2 0  0.6 0.2 0  0.65 0.2 0  0.7 0.2 0  0.75 0.2 0  0.8 0.2 0  0.85 0.2 0  0.9 0.2 0  0.95 0.2 0  1 0.2 0  0 0.25 0  0.05 0.25 0  0.1 0.25 0  0.15 0.25 0  0.2 0.25 0  0.25 0.25 0  0.3 0.25 0  0.35 0.25 0  0.4 0.25 0  0.45 0.25 0  0.5 0.25 0  0.55 0.25 0  0.6 0.25 0  0.65 0.25 0  0.7 0.25 0  0.75 0.25 0  0.8 0.25 0  0.85 0.25 0  0.9 0.25 0  0.95 0.25 0  1 0.25 0  0 0.3 0  0.05 0.3 0  0.1 0.3 0  0.15 0.3 0  0.2 0.3 0  0.25 0.3 0  0.3 0.3 0  0.35 0.3 0  0.4 0.3 0  0.45 0.3 0  0.5 0.3 0  0.55 0.3 0  0.6 0.3 0  0.65 0.3 0  0.7 0.3 0  0.75 0.3 0  0.8 0.3 0  0.85 0.3 0  0.9 0.3 0  0.95 0.3 0  1 0.3 0  0 0.35 0  0.05 0.35 0  0.1 0.35 0  0.15 0.35 0  0.2 0.35 0  0.25 0.35 0  0.3 0.35 0  0.35 0.35 0  0.4 0.35 0  0.45 0.35 0  0.5 0.35 0  0.55 0.35 0  0.6 0.35 0  0.65 0.35 0  0.7 0.35 0  0.75 0.35 0  0.8 0.35 0  0.85 0.35 0  0.9 0.35 0  0.95 0.35 0  1 0.35 0  0 0.4 0  0.05 0.4 0  0.1 0.4 0  0.15 0.4 0  0.2 0.4 0  0.25 0.4 0  0.3 0.4 0  0.35 0.4 0  0.4 0.4 0  0.45 0.4 0  0.5 0.4 0  0.55 0.4 0  0.6 0.4 0  0.65 0.4 0  0.7 0.4 0  0.75 0.4 0  0.8 0.4 0  0.85 0.4 0  0.9 0.4 0  0.95 0.4 0  1 0.4 0  0 0.45 0  0.05 0.45 0  0.1 0.45 0  0.15 0.45 0  0.2 0.45 0  0.25 0.45 0  0.3 0.45 0  0.35 0.45 0  0.4 0.45 0  0.45 0.45 0  0.5 0.45 0  0.55 0.45 0  0.6 0.45 0  0.65 0.45 0  0.7 0.45 0  0.75 0.45 0  0.8 0.45 0  0.85 0.45 0  0.9 0.45 0  0.95 0.45 0  1 0.45 0  0 0.5 0  0.05 0.5 0  0.1 0.5 0  0.15 0.5 0  0.2 0.5 0  0.25 0.5 0  0.3 0.5 0  0.35 0.5 0  0.4 0.5 0  0.45 0.5 0  0.5 0.5 0  0.55 0.5 0  0.6 0.5 0  0.65 0.5 0  0.7 0.5 0  0.75 0.5 0  0.8 0.5 0  0.85 0.5 0  0.9 0.5 0  0.95 0.5 0  1 0.5 0  0 0.55 0  0.05 0.55 0  0.1 0.55 0  0.15 0.55 0  0.2 0.55 0  0.25 0.55 0  0.3 0.55 0  0.35 0.55 0  0.4 0.55 0  0.45 0.55 0  0.5 0.55 0  0.55 0.55 0  0.6 0.55 0  0.65 0.55 0  0.7 0.55 0  0.75 0.55 0  0.8 0.55 0  0.85 0.55 0  0.9 0.55 0  0.95 0.55 0  1 0.55 0  0 0.6 0  0.05 0.6 0  0.1 0.6 0  0.15 0.6 0  0.2 0.6 0  0.25 0.6 0  0.3 0.6 0  0.35 0.6 0  0.4 0.6 0  0.45 0.6 0  0.5 0.6 0  0.55 0.6 0  0.6 0.6 0  0.65 0.6 0  0.7 0.6 0  0.75 0.6 0  0.8 0.6 0  0.85 0.6 0  0.9 0.6 0  0.95 0.6 0  1 0.6 0  0 0.65 0  0.05 0.65 0  0.1 0.65 0  0.15 0.65 0  0.2 0.65 0  0.25 0.65 0  0.3 0.65 0  0.35 0.65 0  0.4 0.65 0  0.45 0.65 0  0.5 0.65 0  0.55 0.65 0  0.6 0.65 0  0.65 0.65 0  0.7 0.65 0  0.75 0.65 0  0.8 0.65 0  0.85 0.65 0  0.9 0.65 0  0.95 0.65 0  1 0.65 0  0 0.7 0  0.05 0.7 0  0.1 0.7 0  0.15 0.7 0  0.2 0.7 0  0.25 0.7 0  0.3 0.7 0  0.35 0.7 0  0.4 0.7 0  0.45 0.7 0  0.5 0.7 0  0.55 0.7 0  0.6 0.7 0  0.65 0.7 0  0.7 0.7 0  0.75 0.7 0  0.8 0.7 0  0.85 0.7 0  0.9 0.7 0  0.95 0.7 0  1 0.7 0  0 0.75 0  0.05 0.75 0  0.1 0.75 0  0.15 0.75 0  0.2 0.75 0  0.25 0.75 0  0.3 0.75 0  0.35 0.75 0  0.4 0.75 0  0.45 0.75 0  0.5 0.75 0  0.55 0.75 0  0.6 0.75 0  0.65 0.75 0  0.7 0.75 0  0.75 0.75 0  0.8 0.75 0  0.85 0.75 0  0.9 0.75 0  0.95 0.75 0  1 0.75 0  0 0.8 0  0.05 0.8 0  0.1 0.8 0  0.15 0.8 0  0.2 0.8 0  0.25 0.8 0  0.3 0.8 0  0.35 0.8 0  0.4 0.8 0  0.45 0.8 0  0.5 0.8 0  0.55 0.8 0  0.6 0.8 0  0.65 0.8 0  0.7 0.8 0  0.75 0.8 0  0.8 0.8 0  0.85 0.8 0  0.9 0.8 0  0.95 0.8 0  1 0.8 0  0 0.85 0  0.05 0.85 0  0.1 0.85 0  0.15 0.85 0  0.2 0.85 0  0.25 0.85 0  0.3 0.85 0  0.35 0.85 0  0.4 0.85 0  0.45 0.85 0  0.5 0.85 0  0.55 0.85 0  0.6 0.85 0  0.65 0.85 0  0.7 0.85 0  0.75 0.85 0  0.8 0.85 0  0.85 0.85 0  0.9 0.85 0  0.95 0.85 0  1 0.85 0  0 0.9 0  0.05 0.9 0  0.1 0.9 0  0.15 0.9 0  0.2 0.9 0  0.25 0.9 0  0.3 0.9 0  0.35 0.9 0  0.4 0.9 0  0.45 0.9 0  0.5 0.9 0  0.55 0.9 0  0.6 0.9 0  0.65 0.9 0  0.7 0.9 0  0.75 0.9 0  0.8 0.9 0  0.85 0.9 0  0.9 0.9 0  0.95 0.9 0  1 0.9 0  0 0.95 0  0.05 0.95 0  0.1 0.95 0  0.15 0.95 0  0.2 0.95 0  0.25 0.95 0  0.3 0.95 0  0.35 0.95 0  0.4 0.95 0  0.45 0.95 0  0.5 0.95 0  0.55 0.95 0  0.6 0.95 0  0.65 0.95 0  0.7 0.95 0  0.75 0.95 0  0.8 0.95 0  0.85 0.95 0  0.9 0.95 0  0.95 0.95 0  1 0.95 0  0 1 0  0.05 1 0  0.1 1 0  0.15 1 0  0.2 1 0  0.25 1 0  0.3 1 0  0.35 1 0  0.4 1 0  0.45 1 0  0.5 1 0  0.55 1 0  0.6 1 0  0.65 1 0  0.7 1 0  0.75 1 0  0.8 1 0  0.85 1 0  0.9 1 0  0.95 1 0  1 1 0  </DataArray>
</Points>
<Cells>
[...]
<PointData  Scalars="f_25"> 
<DataArray  type="Float64"  Name="f_25"  format="ascii">0.0000000000000000e+00  0.0000000000000000e+00  0.0000000000000000e+00  0.0000000000000000e+00  0.0000000000000000e+00  0.0000000000000000e+00  0.0000000000000000e+00  0.0000000000000000e+00  0.0000000000000000e+00  0.0000000000000000e+00  0.0000000000000000e+00  0.0000000000000000e+00  0.0000000000000000e+00  0.0000000000000000e+00  0.0000000000000000e+00  0.0000000000000000e+00  0.0000000000000000e+00  0.0000000000000000e+00  0.0000000000000000e+00  0.0000000000000000e+00  0.0000000000000000e+00  0.0000000000000000e+00  6.6336697725540034e-03  1.5189292153698098e-02  2.4755799038877990e-02  3.4532253000990394e-02  4.3906275882278495e-02  5.2430553419097144e-02  5.9778592245715995e-02  6.5710006422324704e-02  7.0049624566164315e-02  7.2676759454242165e-02  7.3520311793242712e-02  7.2556611319722922e-02  6.9808151909587321e-02  6.5342147743044934e-02  5.9267460270196894e-02  5.1723194133746569e-02  4.2826125615737148e-02  3.2449731189177863e-02  1.9487114363500618e-02  0.0000000000000000e+00  0.0000000000000000e+00  1.5189292153698103e-02  3.4807534260314750e-02  5.6828019852052679e-02  7.9399964451511831e-02  1.0109014592776652e-01  1.2084813630435766e-01  1.3790762774695040e-01  1.5170528904733468e-01  1.6183098132414370e-01  1.6800185698565490e-01  1.7005039714256787e-01  1.6791907027680128e-01  1.6165711243324818e-01  1.5141640082628502e-01  1.3744140121658946e-01  1.2003349361374561e-01  9.9409178762938560e-02  7.5180234157038048e-02  4.4792469111031082e-02  0.0000000000000000e+00  0.0000000000000000e+00  2.4755799038878000e-02  5.6828019852052686e-02  9.2964209511285173e-02  1.3011958167656176e-01  1.6590721053055660e-01  1.9856903354997346e-01  2.2682147031144675e-01  2.4972174279598364e-01  2.6658388494743801e-01  2.7693429015679910e-01  2.8049084208569131e-01  2.7715343266472653e-01  2.6699809953230924e-01  2.5026903697796182e-01  2.2735826772923981e-01  1.9873643430343382e-01  1.6469945763572441e-01  1.2450807405061204e-01  7.3944618907961820e-02  0.0000000000000000e+00  0.0000000000000000e+00  3.4532253000990401e-02  7.9399964451511887e-02  1.3011958167656185e-01  1.8241451934410252e-01  2.3289503566531461e-01  2.7905064562268805e-01  3.1904521265439684e-01  3.5153035022401907e-01  3.7552529637903365e-01  3.9035216438336240e-01  3.9560500215610106e-01  3.9113546373320707e-01  3.7704376031391262e-01  3.5366594128086026e-01  3.2154113283664315e-01  2.8130351565955397e-01  2.3330680476028851e-01  1.7640773845450730e-01  1.0462530805003763e-01  0.0000000000000000e+00  0.0000000000000000e+00  4.3906275882278523e-02  1.0109014592776658e-01  1.6590721053055668e-01  2.3289503566531466e-01  2.9768310759894501e-01  3.5701718869559002e-01  4.0851191167456269e-01  4.5041496037403472e-01  4.8145183078989773e-01  5.0074069737388605e-01  5.0775103426079593e-01  5.0228409429856669e-01  4.8446035867393783e-01  4.5470161755117217e-01  4.1368477783621993e-01  3.6219321118722186e-01  3.0061778302064718e-01  2.2739112999218417e-01  1.3478240316479018e-01  0.0000000000000000e+00  0.0000000000000000e+00  5.2430553419097192e-02  1.2084813630435781e-01  1.9856903354997360e-01  2.7905064562268828e-01  3.5701718869559002e-01  4.2852135324490287e-01  4.9066307771316681e-01  5.4131056982845072e-01  5.7891306427385769e-01  6.0239655684084004e-01  6.1111234592170416e-01  6.0481234250391913e-01  5.8363295203969412e-01  5.4807186695577259e-01  4.9892843861097008e-01  4.3711534533128188e-01  3.6304223347552056e-01  2.7472576650642433e-01  1.6279502555473344e-01  0.0000000000000000e+00  0.0000000000000000e+00  5.9778592245716050e-02  1.3790762774695051e-01  2.2682147031144687e-01  3.1904521265439673e-01  4.0851191167456263e-01  4.9066307771316681e-01  5.6214223887982806e-01  6.2048016835002462e-01  6.6388009822234673e-01  6.9109653158888529e-01  7.0137463026258773e-01  6.9442069546967977e-01  6.7038264056028074e-01  6.2982173388048790e-01  5.7364031851256747e-01  5.0285687361472597e-01  4.1788394060152584e-01  3.1635298729851841e-01  1.8743820441722986e-01  0.0000000000000000e+00  0.0000000000000000e+00  6.5710006422324732e-02  1.5170528904733477e-01  2.4972174279598369e-01  3.5153035022401913e-01  4.5041496037403461e-01  5.4131056982845083e-01  6.2048016835002462e-01  6.8517232565073249e-01  7.3338419082412987e-01  7.6372624494053720e-01  7.7535387093087571e-01  7.6793358871129169e-01  7.4162045988822234e-01  6.9702527919783996e-01  6.3513102978298397e-01  5.5703601079006859e-01  4.6314193821773708e-01  3.5074323472123925e-01  2.0780118439946021e-01  0.0000000000000000e+00  0.0000000000000000e+00  7.0049624566164342e-02  1.6183098132414386e-01  2.6658388494743812e-01  3.7552529637903376e-01  4.8145183078989751e-01  5.7891306427385769e-01  6.6388009822234695e-01  7.3338419082412964e-01  7.8526345170556289e-01  8.1801683916363221e-01  8.3072953370595959e-01  8.2303568874051081e-01  7.9509324710813012e-01  7.4754727747995109e-01  6.8143700641869198e-01  5.9791287448452035e-01  4.9735381783466814e-01  3.7677833205343647e-01  2.2321841341810814e-01  0.0000000000000000e+00  0.0000000000000000e+00  7.2676759454242179e-02  1.6800185698565495e-01  2.7693429015679921e-01  3.9035216438336245e-01  5.0074069737388616e-01  6.0239655684084004e-01  6.9109653158888518e-01  7.6372624494053720e-01  8.1801683916363188e-01  8.5239181627813321e-01  8.6588803068416753e-01  8.5811584063150037e-01  8.2923191707814548e-01  7.7989956763756441e-01  7.1118851958027818e-01  6.2427263083821838e-01  5.1949758606723639e-01  3.9367647942901518e-01  2.3322482167456846e-01  0.0000000000000000e+00  0.0000000000000000e+00  7.3520311793242699e-02  1.7005039714256792e-01  2.8049084208569136e-01  3.9560500215610117e-01  5.0775103426079582e-01  6.1111234592170394e-01  7.0137463026258762e-01  7.7535387093087516e-01  8.3072953370595914e-01  8.6588803068416731e-01  8.7984127131924572e-01  8.7218518238581388e-01  8.4307115929252763e-01  7.9316432333134779e-01  7.2353846366572216e-01  6.3536172336716346e-01  5.2893741207774070e-01  4.0095020288520150e-01  2.3753039349474647e-01  0.0000000000000000e+00  0.0000000000000000e+00  7.2556611319722922e-02  1.6791907027680134e-01  2.7715343266472653e-01  3.9113546373320696e-01  5.0228409429856646e-01  6.0481234250391880e-01  6.9442069546967955e-01  7.6793358871129136e-01  8.2303568874051025e-01  8.5811584063150037e-01  8.7218518238581355e-01  8.6483505001633387e-01  8.3620776570048139e-01  7.8695384088080456e-01  7.1812463359799172e-01  6.3085368403291675e-01  5.2539412697294119e-01  3.9838307479043866e-01  2.3600573230391961e-01  0.0000000000000000e+00  0.0000000000000000e+00  6.9808151909587335e-02  1.6165711243324832e-01  2.6699809953230946e-01  3.7704376031391268e-01  4.8446035867393783e-01  5.8363295203969401e-01  6.7038264056028063e-01  7.4162045988822201e-01  7.9509324710812923e-01  8.2923191707814503e-01  8.4307115929252729e-01  8.3620776570048139e-01  8.0877147335446231e-01  7.6138216083812460e-01  6.9504284713740450e-01  6.1082448143429768e-01  5.0892357599804183e-01  3.8601210219207582e-01  2.2867050879452752e-01  0.0000000000000000e+00  0.0000000000000000e+00  6.5342147743044948e-02  1.5141640082628507e-01  2.5026903697796193e-01  3.5366594128086032e-01  4.5470161755117228e-01  5.4807186695577237e-01  6.2982173388048746e-01  6.9702527919783974e-01  7.4754727747995098e-01  7.7989956763756407e-01  7.9316432333134734e-01  7.8695384088080433e-01  7.6138216083812449e-01  7.1702331116368045e-01  6.5480726757293595e-01  5.7571591801023825e-01  4.7988409034705515e-01  3.6410061030258850e-01  2.1567487881821457e-01  0.0000000000000000e+00  0.0000000000000000e+00  5.9267460270196907e-02  1.3744140121658946e-01  2.2735826772923989e-01  3.2154113283664326e-01  4.1368477783622021e-01  4.9892843861097030e-01  5.7364031851256736e-01  6.3513102978298375e-01  6.8143700641869154e-01  7.1118851958027751e-01  7.2353846366572194e-01  7.1812463359799172e-01  6.9504284713740450e-01  6.5480726757293606e-01  5.9825186561925014e-01  5.2624501151099090e-01  4.3885622823926534e-01  3.3307171027474392e-01  1.9725444698960215e-01  0.0000000000000000e+00  0.0000000000000000e+00  5.1723194133746583e-02  1.2003349361374561e-01  1.9873643430343382e-01  2.8130351565955397e-01  3.6219321118722198e-01  4.3711534533128193e-01  5.0285687361472575e-01  5.5703601079006837e-01  5.9791287448452024e-01  6.2427263083821816e-01  6.3536172336716334e-01  6.3085368403291675e-01  6.1082448143429779e-01  5.7571591801023858e-01  5.2624501151099146e-01  4.6314437466379532e-01  3.8641639580557413e-01  2.9332541230180315e-01  1.7361175285010030e-01  0.0000000000000000e+00  0.0000000000000000e+00  4.2826125615737148e-02  9.9409178762938519e-02  1.6469945763572436e-01  2.3330680476028842e-01  3.0061778302064701e-01  3.6304223347552045e-01  4.1788394060152584e-01  4.6314193821773697e-01  4.9735381783466803e-01  5.1949758606723651e-01  5.2893741207774070e-01  5.2539412697294097e-01  5.0892357599804194e-01  4.7988409034705520e-01  4.3885622823926546e-01  3.8641639580557424e-01  3.2250146977263000e-01  2.4474404671072075e-01  1.4461477932032538e-01  0.0000000000000000e+00  0.0000000000000000e+00  3.2449731189177863e-02  7.5180234157038034e-02  1.2450807405061200e-01  1.7640773845450725e-01  2.2739112999218400e-01  2.7472576650642422e-01  3.1635298729851835e-01  3.5074323472123908e-01  3.7677833205343642e-01  3.9367647942901518e-01  4.0095020288520133e-01  3.9838307479043855e-01  3.8601210219207599e-01  3.6410061030258861e-01  3.3307171027474408e-01  2.9332541230180326e-01  2.4474404671072075e-01  1.8545311871720813e-01  1.0909898145188759e-01  0.0000000000000000e+00  0.0000000000000000e+00  1.9487114363500615e-02  4.4792469111031068e-02  7.3944618907961779e-02  1.0462530805003754e-01  1.3478240316479007e-01  1.6279502555473335e-01  1.8743820441722980e-01  2.0780118439946013e-01  2.2321841341810805e-01  2.3322482167456848e-01  2.3753039349474644e-01  2.3600573230391950e-01  2.2867050879452758e-01  2.1567487881821459e-01  1.9725444698960218e-01  1.7361175285010039e-01  1.4461477932032540e-01  1.0909898145188759e-01  6.3503087412196665e-02  0.0000000000000000e+00  0.0000000000000000e+00  0.0000000000000000e+00  0.0000000000000000e+00  0.0000000000000000e+00  0.0000000000000000e+00  0.0000000000000000e+00  0.0000000000000000e+00  0.0000000000000000e+00  0.0000000000000000e+00  0.0000000000000000e+00  0.0000000000000000e+00  0.0000000000000000e+00  0.0000000000000000e+00  0.0000000000000000e+00  0.0000000000000000e+00  0.0000000000000000e+00  0.0000000000000000e+00  0.0000000000000000e+00  0.0000000000000000e+00  0.0000000000000000e+00  0.0000000000000000e+00  </DataArray> 
</PointData> 
</Piece>
</UnstructuredGrid>
</VTKFile>