<?xml version="1.0"?>
<VTKFile type="UnstructuredGrid"  version="0.1"  >
<UnstructuredGrid>
<Piece  NumberOfPoints="11884" NumberOfCells="23245">
<Points>
<DataArray  type="Float64"  NumberOfComponents="3"  format="ascii">0 1 0  0 0 0  2 0 0  2 1 0  1.698973864678379 0.5202336643974864 0  1.7 0.5 0  1.698973864678379 0.4797663356025136 0  1.695905988250499 0.4597402959822678 0  1.69082785128001 0.4401273754053283 0  1.683791562324046 0.4211288289773363 0  1.674869323228916 0.4029396074937837 0  1.664152688241455 0.3857463569810415 0  1.651751624538558 0.3697255034555556 0  1.637793383815137 0.355041442554176 0  1.622421196509533 0.3418448526124602 0  1.605792802065392 0.3302711485010498 0  1.588078830311527 0.3204390920858516 0  1.569461050568964 0.3124495735705839 0  1.550130506451744 0.3063845762267591 0  1.530285555500915 0.3023063351343777 0  1.510129833767743 0.3002566985657894 0  1.489870166232257 0.3002566985657894 0  1.469714444499085 0.3023063351343777 0  1.449869493548256 0.3063845762267592 0  1.430538949431036 0.3124495735705839 0  1.411921169688473 0.3204390920858516 0  1.394207197934608 0.3302711485010498 0  1.377578803490467 0.3418448526124602 0  1.362206616184863 0.355041442554176 0  1.348248375461442 0.3697255034555555 0  1.335847311758545 0.3857463569810416 0  1.325130676771084 0.4029396074937838 0  1.316208437675954 0.4211288289773363 0  1.30917214871999 0.4401273754053284 0  1.304094011749501 0.459740295982268 0  1.301026135321621 0.4797663356025136 0  1.3 0.5 0  1.301026135321621 0.5202336643974865 0  1.304094011749501 0.540259704017732 0  1.30917214871999 0.5598726245946716 0  1.316208437675954 0.5788711710226637 0  1.325130676771084 0.5970603925062162 0  1.335847311758545 0.6142536430189585 0  1.348248375461442 0.6302744965444445 0  1.362206616184863 0.6449585574458241 0  1.377578803490467 0.6581551473875398 0  1.394207197934608 0.6697288514989502 0  1.411921169688473 0.6795609079141484 0  1.430538949431036 0.6875504264294161 0  1.449869493548256 0.6936154237732408 0  1.469714444499085 0.6976936648656222 0  1.489870166232258 0.6997433014342106 0  1.510129833767743 0.6997433014342106 0  1.530285555500915 0.6976936648656222 0  1.550130506451744 0.6936154237732408 0  1.569461050568964 0.6875504264294161 0  1.588078830311527 0.6795609079141484 0  1.605792802065392 0.6697288514989502 0  1.622421196509533 0.6581551473875398 0  1.637793383815137 0.644958557445824 0  1.651751624538558 0.6302744965444445 0  1.664152688241455 0.6142536430189585 0  1.674869323228916 0.5970603925062162 0  1.683791562324046 0.5788711710226637 0  1.69082785128001 0.5598726245946716 0  1.695905988250499 0.540259704017732 0  1 0 0  2 0.5 0  1 1 0  1.5 0 0  1.5 1 0  0.5 0 0  0.5 1 0  0 0.5 0  0.5 0.5 0  0.8979451520621882 0.3979451520621882 0  0 0.25 0  0.25 0 0  0.25 1 0  0 0.75 0  0.7708303839752197 0.7291696160247803 0  1.060487450065458 0.7155911983023616 0  0.75 0 0  0.2916666666666666 0.7083333333333334 0  0.375 0.25 0  0.6539539170268753 0.2621808755403131 0  1.25 1 0  1.25 0 0  1.75 1 0  1.75 0 0  1.112692937705768 0.2409594089613299 0  2 0.25 0  2 0.75 0  0.75 1 0  0.5303804697827851 0.7387138031161185 0  0.2464080459770115 0.4633620689655173 0  0.8553918969027863 0.187291729613026 0  1.085402918473043 0.5024315416394216 0  0.7023836171233588 0.4622733382543529 0  1.79160099748236 0.20839900251764 0  1.794877707231097 0.780302162265984 0  0.1875 0.1875 0  1.240861390876714 0.8018603484044563 0  1.375 0.1361568683804299 0  1.625 0.86384313161957 0  0.3942533393944628 0.8552952337658599 0  0.1309523809523809 0.625 0  1.866695531309557 0.375 0  1.625 0.133304468690443 0  0.9135340366856546 0.5903783721812751 0  0.875 0.8733978721656475 0  0.1614583333333333 0.8385416666666667 0  1.861691627266289 0.6139916217495461 0  0.625 1 0  1.375 1 0  0 0.375 0  0.6460409596115246 0.6189475511056312 0  1.427950053189037 0.8505991009566451 0  1.096547023637989 0.8718968415867947 0  0.6548710671350823 0.8414074186700786 0  0.625 0 0  0.518434142412921 0.1654670712064605 0  2 0.875 0  2 0.125 0  0.4227838789699086 0.631117212303242 0  1.174244366048091 0.6208518683223968 0  0.9150745817949225 0.7347211404405644 0  0.5833057533781096 0.3851874285470316 0  1.264198615263525 0.2394969012883426 0  0.2478918251154796 0.3188245246535611 0  1.171670737509109 0.3792751658987548 0  0.375 0 0  0.3848106957971396 0.4013446521014302 0  1.875 1 0  1.875 0 0  0.7226771605697627 0.1386736503906993 0  0.7866686533598989 0.3107989547626397 0  1.187322699694695 0.1238851689280521 0  1.033847294562251 0.3745258129875347 0  0.7787025857173402 0.5945049320634191 0  0.9978707442331234 0.1478278840777184 0  0.125 0 0  0 0.125 0  0.3125 0.125 0  0.5252859400442395 0.8705307571577421 0  0.1336939659884776 0.3899285918080404 0  0.9473047687541473 0.278349495709411 0  1.500408963266212 0.1705744589102492 0  2 0.625 0  1.125 0 0  0.875 1 0  1.625 0 0  2 0.375 0  0 0.625 0  0.375 1 0  1.375 0 0  0.875 0 0  1.625 1 0  0.125 1 0  0 0.875 0  1.125 1 0  0.2515394088669951 0.589080459770115 0  0.4960860242731235 0.2915019977398662 0  1.3125 0.8978367996372491 0  1.879600142406784 0.4948183868835845 0  0.1373590039176865 0.507523027663466 0  1.875396467257815 0.8753964672578145 0  0.2753984013887208 0.8810651239696262 0  0.3583608519767832 0.5237399493056075 0  0.8178212500450106 0.4837871725870475 0  0.9854859025398142 0.8301972025150728 0  0.4171881142387189 0.7443095678473082 0  1.877937327755065 0.1220626722449352 0  1.740177034599891 0.8835609549694374 0  0.5334847941946562 0.6080147451808329 0  0.6591734692896026 0.7298314625966634 0  0.7608262314608485 0.8856790900669238 0  1.680188243488547 0.2411164862966956 0  1.764155555865517 0.3209946268764028 0  1.679625115443943 0.7604306959570221 0  0.423854184605871 0.1025520923029355 0  0.1800595238095238 0.7269345238095238 0  0.9700685320813959 0.4889505185160206 0  1.028868423077302 0.603859395304676 0  1.192850367067706 0.514357715613352 0  1.888680779705458 0.2648655293601784 0  1.773249043438072 0.1037107182006467 0  1.762997493137722 0.6709182956913284 0  0.1128401347701896 0.2760204043105687 0  1.891122068382689 0.7223913117634155 0  0.6151273515693181 0.1106910846263306 0  0.8163099567485405 0.08852785149487553 0  0.6021957829210146 0.4865224613743478 0  0.6939668469296923 0.3584033933047285 0  1.257597909079549 0.6929379047209219 0  1.348579096223659 0.7718237852801478 0  1.529766295043803 0.8082523174852182 0  1.140797873790022 0.7793759321223492 0  1.200788012206832 0.9029891867672667 0  0.4838218861545398 0.3903625705092696 0  0.28125 0.21875 0  0.109375 0.109375 0  0.21875 0.09375 0  0.8454916105431659 0.6659717096016988 0  1.087613635217926 0.09642676582788327 0  1.535752578405105 0.9073658622369019 0  0.9375 0.07302905065868745 0  1.785607914082173 0.4260509875683541 0  1.582341568352376 0.2175849061081068 0  1.283468886058964 0.09473070143016181 0  1.36303112168044 0.234394560524008 0  1.793128428267754 0.5449056235020647 0  1.456359269732076 0.0853923511783965 0  0.07073252688172042 0.8125 0  0.0924753097241701 0.9078102849914793 0  0.1875 0.9292674731182796 0  0.7682628706575021 0.21968392479392 0  1.689066235663035 0.06812089822275402 0  1.5625 0.06665223434522151 0  0.08629472740800861 0.7093098958333333 0  0.2427141098421804 0.7947306254498873 0  0.06546244851676387 0.5625 0  0.4527178439403957 0.9235617251706857 0  0.3374124502762502 0.7856867496593305 0  0.07244843346474747 0.1935015593614702 0  0.8407804668618366 0.7883804554219618 0  0.9375 0.9366989360828237 0  0.6875 0.9364081484450741 0  1.935253831461142 0.5641138319037696 0  1.937429315865514 0.1875 0  1.8125 0.9374987385085876 0  1.928483711053007 0.8035419783483723 0  0.3373417044517646 0.6093653262207313 0  0.7750283570698374 0.4021943662398121 0  2 0.9375 0  0.6018261377893155 0.9147146521504367 0  0.9815243403789714 0.6775971578925968 0  0.07158461019770647 0.4507186710011561 0  1.9375 0 0  1.019104713029961 0.9094058851236668 0  2 0.4375 0  0.6875 0 0  1.02397197994164 0.2329956872895971 0  1.255657062746488 0.3343568140182954 0  1.180051781529707 0.2939695540071484 0  1.104388962334581 0.3296004014243565 0  0.5838265869155305 0.6745968436379023 0  0.7146317133040128 0.667043650085112 0  0.6677533729490804 0.5382877110744301 0  0.5049359339735974 0.08321048302766 0  0.4351540067928767 0.1881135099931097 0  0.5680402441708845 0.2392618820870165 0  0.4656673263165335 0.8121901425102644 0  1.718985137717654 0.1671759310717096 0  1.4375 1 0  0.8715287402118453 0.3170588502721854 0  1.672621580189108 0.931921565809785 0  1.060804454073283 0.7976432689785894 0  1.141028618294955 0.6966341993197843 0  0.8125 1 0  0.5981616234114435 0.7833497566089633 0  0.732195309431751 0.8052745174117424 0  0.3353506138687095 0.3285605215423964 0  0.4182766006288239 0.3211273960747205 0  0.3028379014737833 0.4038516057317523 0  1.456768288899456 0.7763140225372908 0  1.389370295940228 0.9210094415426482 0  1.598162164902742 0.7638673233440213 0  1.933347765654778 0.3310436398456734 0  0.6541421681647213 0.181412141624312 0  0.2268832101806239 0.6637546182266011 0  0.3125 1 0  0.346623148702668 0.9225911511773774 0  1.231253662158137 0.4304167521341539 0  0.0625 0 0  0.7508992867264177 0.5224119450006208 0  0.9892104547763173 0.7537490673206489 0  0.8943342175527331 0.4748890995358561 0  0.4356369246019441 0.5503912432142598 0  0.4191554228232365 0.4728221873796772 0  0.3643745672810942 0.6818651672780586 0  0.489149578067618 0.6723481040184091 0  1.188122303811521 0.2067186239145147 0  1.304029865240875 0.1711332983515724 0  1.427007907485215 0.1923412646022086 0  1.074055283951396 0.173221612474465 0  1.101214724205108 0.4217149349018773 0  0 0.3125 0  0.07197179300639558 0.34236541773817 0  1.235527625173731 0.5766864619018883 0  1.133524648448154 0.5588651314280451 0  0.9352335932234221 0.1986171423824196 0  1.015262196477668 0.07414910731327649 0  1.033045060636793 0.4502679987366521 0  1.864144619093824 0.1953639772769931 0  1.922397783935594 0
[...]
<PointData  Scalars="f_760"> 
<DataArray  type="Float64"  Name="f_760"  format="ascii">0.0000000000000000e+00  0.0000000000000000e+00  0.0000000000000000e+00  0.0000000000000000e+00  0.0000000000000000e+00  0.0000000000000000e+00  0.0000000000000000e+00  0.0000000000000000e+00  0.0000000000000000e+00  0.0000000000000000e+00  0.0000000000000000e+00  0.0000000000000000e+00  0.0000000000000000e+00  0.0000000000000000e+00  0.0000000000000000e+00  0.0000000000000000e+00  0.0000000000000000e+00  0.0000000000000000e+00  0.0000000000000000e+00  0.0000000000000000e+00  0.0000000000000000e+00  0.0000000000000000e+00  0.0000000000000000e+00  0.0000000000000000e+00  0.0000000000000000e+00  0.0000000000000000e+00  0.0000000000000000e+00  0.0000000000000000e+00  0.0000000000000000e+00  0.0000000000000000e+00  0.0000000000000000e+00  0.0000000000000000e+00  0.0000000000000000e+00  0.0000000000000000e+00  0.0000000000000000e+00  0.0000000000000000e+00  0.0000000000000000e+00  0.0000000000000000e+00  0.0000000000000000e+00  0.0000000000000000e+00  0.0000000000000000e+00  0.0000000000000000e+00  0.0000000000000000e+00  0.0000000000000000e+00  0.0000000000000000e+00  0.0000000000000000e+00  0.0000000000000000e+00  0.0000000000000000e+00  0.0000000000000000e+00  0.0000000000000000e+00  0.0000000000000000e+00  0.0000000000000000e+00  0.0000000000000000e+00  0.0000000000000000e+00  0.0000000000000000e+00  0.0000000000000000e+00  0.0000000000000000e+00  0.0000000000000000e+00  0.0000000000000000e+00  0.0000000000000000e+00  0.0000000000000000e+00  0.0000000000000000e+00  0.0000000000000000e+00  0.0000000000000000e+00  0.0000000000000000e+00  0.0000000000000000e+00  0.0000000000000000e+00  0.0000000000000000e+00  0.0000000000000000e+00  0.0000000000000000e+00  0.0000000000000000e+00  0.0000000000000000e+00  0.0000000000000000e+00  2.1660202677709219e+02  1.6668537469727247e+02  1.2499292941997481e+02  1.9615325965019900e+02  0.0000000000000000e+00  0.0000000000000000e+00  1.9599325712916971e+02  1.2477816347437786e+02  9.9352990516223301e+01  0.0000000000000000e+00  1.7538846628704209e+02  1.5905451299659956e+02  1.3447586780251092e+02  0.0000000000000000e+00  0.0000000000000000e+00  0.0000000000000000e+00  0.0000000000000000e+00  8.7470387557778892e+01  0.0000000000000000e+00  0.0000000000000000e+00  0.0000000000000000e+00  1.4625052181062534e+02  1.9175960488029170e+02  9.5963087566900654e+01  1.0826778959154608e+02  1.4623776489230644e+02  1.9595580179620086e+01  1.8588782266847510e+01  1.5729544883483032e+02  6.7683761123404963e+01  4.3076483369949933e+01  2.8281158578746581e+01  1.1637821007101655e+02  2.0012153689336563e+02  1.7643856405325311e+00  2.7847578615309470e+01  1.2387660780571005e+02  7.0390371604669554e+01  1.4731000527518191e+02  1.3212180970084537e+00  0.0000000000000000e+00  0.0000000000000000e+00  2.1320744821881905e+02  1.4918221972777900e+02  4.3127808257478264e+01  5.7054521838433743e+01  1.0131886033228641e+02  0.0000000000000000e+00  1.1619876848894711e+02  0.0000000000000000e+00  0.0000000000000000e+00  1.7065920364494491e+02  9.6747607988342125e+01  1.1003461170947929e+02  1.5569666796979789e+02  7.3942839527584283e+01  1.8357402329027633e+02  9.7034059370868803e+01  0.0000000000000000e+00  1.7624916260612440e+02  0.0000000000000000e+00  0.0000000000000000e+00  8.6780473563881841e+01  1.2925944757952598e+02  5.0226632816613957e+01  1.1036687084334996e+02  1.3714278933433712e+02  7.0901740583945781e+01  0.0000000000000000e+00  1.4096594230987822e+02  1.1157146224766959e+02  9.6776596237510120e+01  2.0075073109946359e+02  1.0921766221463457e+02  4.2597714064619545e+01  0.0000000000000000e+00  0.0000000000000000e+00  0.0000000000000000e+00  0.0000000000000000e+00  0.0000000000000000e+00  2.1317398626956074e+02  0.0000000000000000e+00  0.0000000000000000e+00  0.0000000000000000e+00  0.0000000000000000e+00  0.0000000000000000e+00  1.4074265387238006e+02  0.0000000000000000e+00  1.8990271952238174e+02  1.5519764149441355e+02  3.6422950723394194e+01  6.7220171525335992e-02  2.0287777690158356e+02  1.3336981219834842e+01  1.1050687536687394e+02  1.8071840402524373e+02  1.3491749103490577e+02  7.9566741472227548e+01  1.5612260206809165e+02  1.3054390252901221e+01  1.9071389401753116e+01  1.6096598655030888e+02  1.3544144313393988e+02  7.1707518516959070e+01  2.3377761861925368e+01  5.7085104594140503e+00  2.3706799817349545e+01  8.7221167668039215e+01  1.8319627408558176e+02  1.1975003846229698e+02  1.1189087525152731e+02  9.7531872889264051e+01  1.0222969715047387e+01  1.5931042111760069e+01  4.7192508780620352e+00  1.9050763998036959e+02  8.9798554676584192e+00  7.9232773484649343e+01  5.4512462374022618e+01  1.5645339748584021e+02  1.4298994204692121e+02  8.3447997674598156e+01  6.4841678345731751e+01  4.2975218625516369e+01  8.0846691985140808e+01  3.9850291456921987e+01  1.6587356222685705e+02  1.5964101907974921e+02  1.1866912776321973e+02  9.6109237523693082e+01  1.2591653966928051e+02  4.4997359898338118e+01  2.4044300121261394e+01  4.0642316508966687e+01  1.9906884295372121e-01  3.7065056430379222e+01  3.5306837395929691e+01  6.4638302173894346e+01  6.4089533561983256e-02  2.5303571944139023e+01  1.6856849834617881e+02  1.0570823669702197e+02  7.7629291505149297e+01  1.1349735344856211e+02  1.3421936602241173e+01  1.6853385982044990e+01  1.9561863597024634e+02  1.5865633425467470e+02  2.0930557832702877e+02  6.5714841609223754e+01  1.5252268805752666e+02  1.7108742661035998e+02  1.0462855724597388e+02  3.5456829960349069e+01  4.5071991721159506e+01  4.2355308697028149e-01  1.2177891016907711e+01  9.0894564658848935e+00  1.2461411792485803e+01  1.8044403557966623e+02  1.3739904188570907e+02  0.0000000000000000e+00  6.3772350157656632e+01  1.1146725505003448e+02  2.0900438037684182e+02  0.0000000000000000e+00  4.5662448687409622e+01  0.0000000000000000e+00  0.0000000000000000e+00  9.3737356529242319e+01  8.6053378809436268e+01  8.9363593026360405e+01  1.0025622342226167e+02  1.5089943470588688e+02  1.3872340340373370e+02  1.4967465289513390e+02  6.7911972566161225e+01  1.3364620907840555e+02  1.3756669174953328e+02  1.3053248736135311e+02  2.5044611381190130e+01  0.0000000000000000e+00  1.2168120027255640e+02  1.3901062849445639e+01  8.3228203986802413e+01  9.4088667408485492e+01  0.0000000000000000e+00  1.2827855507162562e+02  1.0895929501802866e+02  1.7597944767505626e+02  1.6690429913028092e+02  1.8453300663901780e+02  5.3671627396034090e+01  2.5895116515375129e+01  3.2033363364735287e+01  4.0651556367739676e+00  1.1105816861887635e+02  1.8749124535043256e+02  0.0000000000000000e+00  7.2860752158329333e+01  9.2962996998507393e+01  0.0000000000000000e+00  1.4154959313527144e+02  9.9557959140676317e+01  1.2722254567541349e+02  1.7263739690386367e+02  1.7462876454915354e+02  1.7182727744395001e+02  1.6052579068517707e+02  7.3878585892939881e+01  5.6597649606998083e+01  5.2191391230571199e+01  7.3981414733525384e+01  1.0564087480084861e+02  2.0740464051333149e+02  2.0353821777617665e+02  9.2341297531720528e+01  1.0289380250455100e+02  9.2777134975034372e+01  3.8111904395888224e+01  1.1307417205777145e+02  1.5778728297488794e+01  4.8099166948497551e-01  2.4826844000433201e+01  1.4806349340570566e+02  7.6360277570706060e+01  1.0346512464951401e+02  0.0000000000000000e+00  3.2099876561222431e+00  0.0000000000000000e+00  8.3098851867695345e+01  8.4737245715652101e+00  1.1864218996925845e+02  1.9283812104197438e+02  1.7534800609970299e+02  9.2293250666801910e+01  1.3169016172496771e+02  5.3079195515580452e+01  1.0637466798660523e+02  1.5042912688753566e+02  1.6238521291118215e+02  1.8994109911273273e+02  1.3027593712712147e+02  1.1599871106281570e+02  3.8828564585279196e+01  6.6798361104075283e+01  1.9772862381483523e+02  1.3615688917240172e+02  1.3615364428528008e+02  6.6195724407803354e+01  6.3688604109553147e+01  0.0000000000000000e+00  0.0000000000000000e+00  8.5128928891247241e+01  8.8393222528315491e+01  1.6063567430241744e+02  1.9840030230421527e+02  0.0000000000000000e+00  1.1710359272759113e+02  8.6736880256814608e+00  1.5751682588496212e+01  0.0000000000000000e+00  2.6110596789991206e+01  1.7906908618806722e+02  2.9124570154399489e+01  9.7428104318650615e+00  6.3257455491926997e+01  2.7231596033933666e+01  1.1375359065545683e+02  1.1345104256683101e+01  1.1916013689739009e+02  2.2523331728918816e+01  6.5785367687310075e+00  1.6123875508593205e+01  1.8109732075870333e+01  5.0655646816883156e+01  1.4406392713402437e+02  4.8890453870354285e+01  0.0000000000000000e+00  7.0886958087034913e+01  2.8762801210883207e+01  0.0000000000000000e+00  1.8177431041158337e+02  1.2685230999502468e+02  0.0000000000000000e+00  1.0302173299554519e+02  5.6671226349460248e+01  2.0527371080130757e+02  6.7804726923509495e+00  1.3251560904052917e+02  0.0000000000000000e+00  8.4951648629546810e+01  9.9915945833803576e+01  4.6758230320470858e+01  3.5350124734287803e+01  4.0449627381156178e-01  4.8967738827031745e+01  1.7786097256190924e+01  1.1426790028432617e+02  1.3020217486207230e+02  1.4133156423222357e+02  1.5691060383316432e+02  6.0911777999811623e+00  0.0000000000000000e+00  1.8797914502721062e+02  1.4290859165132572e+01  3.7485160158540381e+01  9.5161097497958863e+01  5.3607957548459680e+01  3.5841690714947013e+01  0.0000000000000000e+00  0.0000000000000000e+00  0.0000000000000000e+00  0.0000000000000000e+00  0.0000000000000000e+00  1.7572444263007253e+02  0.0000000000000000e+00  2.1585501760621884e+02  2.1583686074170532e+02  0.0000000000000000e+00  0.0000000000000000e+00  0.0000000000000000e+00  2.0734268288124775e+02  1.7551184295619430e+02  0.0000000000000000e+00  0.0000000000000000e+00  0.0000000000000000e+00  0.0000000000000000e+00  0.0000000000000000e+00  0.0000000000000000e+00  0.0000000000000000e+00  0.0000000000000000e+00  0.0000000000000000e+00  0.0000000000000000e+00  0.0000000000000000e+00  0.0000000000000000e+00  7.5539567696861724e+01  7.2756202404384283e+01  4.4100640471791003e+01  1.9637082772946255e+02  7.3114156096580345e+00  5.7002925618152830e+01  6.6991414117940408e+01  1.1841706043564186e+02  1.8310973305381776e+02  2.4212941245916078e+01  4.1269905859820803e+01  1.1713514373275227e+02  1.6914796321687075e+02  1.5488054625738833e+01  9.9493553687398091e+00  1.3169590976567105e+02  1.3398637596072578e+02  1.1725574002071585e+02  2.0125226110230557e+01  7.0833548672302171e-01  3.2188026327774949e+01  2.8821084730034194e+01  2.5391860323330101e-01  2.8616351570313839e-02  5.9591092151604482e-03  1.2473582896354826e-01  2.4202347331580767e-01  1.1827267879389109e+02  5.9587965928113931e+01  3.5602186608826997e+01  2.5624947249379641e+01  1.5553706979361124e+02  6.8825838273239299e+01  1.1120949705914823e+02  6.4194743746767529e+01  1.1151737257173370e+02  6.6393774086450293e+01  6.7538303546829297e+01  1.9749109638903190e+02  9.0131269863448694e+01  1.5453010135834066e+02  6.3862945436887344e+01  1.4033053597136777e+02  2.3531253170236209e+01  1.2663542714299466e+02  1.2873472513109657e+01  9.7595510031483983e+01  1.0288337074362422e+01  1.0745865729741709e+02  2.2179492176794984e+01  4.3089981663264982e+00  1.7781565513475744e+02  1.5413814846135242e+02  1.2328239318858962e+02  6.8482029231814565e+01  8.9001332616947025e+01  1.7718873703771072e+02  2.0346571970454315e+02  6.5725079022486774e+00  3.2040667076821194e+01  1.6295035960155313e+00  1.0767318548665037e+02  1.4862494600231241e+02  1.4109304199502878e+02  1.0782410124397069e+02  9.2428300301763414e+01  7.5164491331417125e+01  1.6740977556593498e+02  1.5393375237421884e+02  1.6551538834857851e+02  1.4027067166853976e+02  1.6764596709351250e+02  1.7899362069334751e+02  1.9267305420168952e+02  4.4431311323902829e+00  5.3245980985400463e+00  7.8272013840276440e+00  1.0499906678901162e+02  2.0858772127943041e+02  5.4444956949870004e+01  1.5486103229682206e+02  1.2241097308843086e+02  1.3121717913500629e+02  1.4512599666848959e+02  3.6541799240678941e+01  8.4017315469117975e+01  3.9907937853363997e+01  1.6815585917992857e+02  1.1796285592035996e+02  3.9330750944556101e+01  1.3103133528807118e+02  1.8272499210522614e+01  1.5525763259785311e+01  1.4269833435801200e+02  8.5495968066416580e+01  9.0428075626339009e+01  4.8856336687958269e+01  3.2403104213142370e+01  5.0183040772241874e+01  2.0648483710285510e+02  1.0287550119786331e+02  1.9750609783003435e+02  1.0631183335355539e+02  1.6638378797636400e+02  3.8226273535306404e+01  9.7879654193605159e+00  2.0354159964593296e+02  1.9328551781080498e+02  8.7660941409921094e+01  1.7216627200176316e+02  4.0607967370597528e+01  1.8852901693248720e+02  1.4321948338953356e+02  1.3912010430943982e+02  1.3603469274978406e+02  1.2685055897174857e+02  9.7618805466837102e+01  2.3278210818266864e+01  5.6937851102338193e+01  2.2123191016269182e+01  1.2173829694243269e+01  1.5148114152772450e+02  1.5717560808458919e+02  1.6161011658496824e+02  8.9627716509255407e+01  7.3187849875327416e+01  1.1221350288659600e+02  1.3422738744664885e+01  1.4537597438871941e+02  1.7054615748914918e+02  1.4340110827958338e+01  2.1727666271890051e+01  4.9726587078567810e+01  1.6566008881168423e+02  1.8677899673899347e+02  3.8922548129885065e+01  2.1068323634696778e+01  6.9331328375968752e+01  1.4942547685290148e+02  1.6183908831099731e+00  1.6354919686192506e+01  2.3967432374897275e+01  7.3097487599735260e+01  7.4694066961815864e+01  9.8780874107879669e+01  8.0661083659609346e+01  1.7351868002825657e+02  1.4823104696522286e+01  1.3650157448798063e+02  2.9947213608815137e+01  1.6196467480717175e+02  3.2688984235971446e+01  1.6424327557359652e+02  1.1108749479228090e+01  1.8670308209797284e+02  1.8554962646242302e+02  1.6725958965534915e+00  8.1118174158055240e+01  1.7850010122258047e+02  1.6082011941427115e+02  2.5410402437272502e+01  7.0125943318958520e+01  5.4756160702753689e+01  1.1636331476553070e+00  5.1615728914038918e+01  1.0460368339515618e+02  1.5882796926151306e+02  1.3962060390045067e+02  1.5499850761253001e+02  9.2336618915276020e+01  2.8122201859264845e+01  1.2534881903989874e+02  1.1204033571147767e+02  1.4839992393280681e+02  1.9891534070785962e+01  1.4136769068159404e+02  1.4340432514794992e+02  1.1392569787382142e+02  6.4159545786298906e+01  2.9204302830491909e-02  3.5432439724437054e-01  9.1884744404398731e+01  7.6211043498821752e+01  6.4803522209748593e+01  9.7429482672951178e+00  1.2514681406495257e+02  1.3858863841601845e+02  2.3684668231169148e+01  3.3590261754922452e+01  3.1795088024320621e-02  6.7441479531325925e+01  1.3094592902594999e+02  1.8902212496105216e+02  1.9719879266068398e+02  8.3577769066901794e+01  8.1967290393066463e+01  5.2746647965437141e+01  8.8249949247053365e+01  5.0908791549015170e+01  9.1963936865814799e-01  9.6277379252058054e+01  1.0178318885185882e+02  1.8959009602562745e+02  1.2354783703843719e+02  9.3859849072173034e+01  1.5390477465031421e+02  4.2310369411844299e+01  6.1236495804237933e+01  1.7806069603277404e+01  8.7965747824861637e+01  3.4415880273868801e+01  4.8698936539139723e+01  2.9290542955542005e+01  4.0446498625502578e+01  1.1717618179253583e+02  4.3469515116003690e+00  4.7936658100435476e+00  2.7903104281361223e+01  1.9378585226100765e+02  1.0392236620842168e+02  1.0298871275034219e+02  1.2220179252188092e+02  1.0095660239601713e+02  2.6858936167574370e+01  1.5383286930700651e+01  1.2757133177531822e+01  2.1407222032640547e+01  1.6347203980343517e+02  1.3432842949709215e+02  8.6552785583069664e+01  1.8402609745315098e+02  1.0521186425019957e+02  1.0531873609605887e+02  1.4025918349669606e+01  1.2803832239882279e+01  2.2758069901149920e+01  1.2903990445066748e+01  1.9936825815610049e-01  1.0009550716118748e+02  7.9892176888659080e+01  6.7191947920843305e+00  3.0484354069297364e+01  2.0543462128224490e+02  2.1267143856499300e+02  2.1153390633117968e+02  1.8485936615192057e+02  1.3480728955509580e+00  1.4200163416784464e+00  1.5097046856096137e+01  9.3206763410945214e+01  4.0132793775803776e+01  8.5404323686221815e+01  1.9955590720369858e+02  1.3475959774693072e+02  1.5386021204480045e+02  7.8086648697983225e+00  1.0009704557584968e+02  1.1239237036618435e+02  2.7287933731019145e+01  1.3465966770626815e+02  2.1142591238028845e+02  1.4062445807980009e+01  8.9091816610201022e+01  4.6754634319038118e+01  9.5017062123397622e+01  5.3590719145902355e+01  1.3955430274056440e+02  1.3212070508441829e+02  1.3287118843992649e-01  1.5859959005557139e+01  7.4256424632873408e+00  1.0552234196850000e+01  9.9687120762480799e+00  1.2867721799209429e+01  1.1307067840048235e+01  4.7423645397132423e+00  6.4220678081943356e+00  8.3387168239451128e+01  6.1806529043033514e+01  1.9497684825278580e+02  1.0651307245956812e+02  1.7562119683279687e+02  2.3619325739375089e+01  9.6496659035436053e+01  1.6877378809228725e+02  1.7913802505623502e+02  1.7336886127508444e+02  1.8105842749922004e+02  6.2026222398744018e+01  1.3611868103871944e+02  1.1286032643642561e+02  1.0857094958418448e+02  1.0420685038658567e+02  8.4456975654563877e+01  7.4115855009307694e+01  1.0988529802573581e+01  1.4608807379953285e+01  4.5029259555775560e+00  7.9329073018444291e+01  8.7330630924872921e+01  1.2569785012901272e+02  2.1254076672989368e+02  2.2067106699904464e+01  7.1830398744047272e-02  6.1623385710531551e+01  1.4394650026904347e+02  1.2725970885633565e+02  1.4545386371062571e+02  1.1786390692011520e+02  5.1202318964945015e+01  3.9972057019477276e+01  7.8190196302130076e+01  1.7816264489502223e+02  4.5762904552799014e+01  1.8944207197420423e+02  0.0000000000000000e+00  1.0728838172734599e+02  1.1903312908837309e+02  9.2448711957721883e+01  3.4274128972499383e+01  1.7061584851207402e+02  1.2339973111106761e+02  6.0565498763369803e+01  2.5004527703873215e+01  1.1682193989626325e+02  1.2181994027805467e+02  1.2611996666709037e+02  1.7222766387116661e+01  1.4626673241200481e+02  5.3725590866147122e+01  1.5644846756600829e+01  1.4506133322653622e+02  1.4696256888628818e+02  1.2263918579798516e+02  4.2022386702906644e+01  1.1261486438616639e+02  0.0000000000000000e+00  4.4104493339333821e+01  1.9215325524623788e+02  1.1949047841961394e+02  3.8202327189721291e-01  1.1119637806283544e+02  8.8263615018353903e+01  9.5622692787554911e+01  1.4189153491601695e+01  5.4709320521386672e+01  1.3242866665972130e+02  1.4420362773672738e+02  1.3922478841654342e+02  3.3550841777973766e+01  0.0000000000000000e+00  1.2390945864164148e+02  1.5279305105434992e+02  1.5017855328957623e+02  0.0000000000000000e+00  2.8093704851376334e+01  1.5653735138790375e+02  4.4481014312458186e+01  5.3973577363011429e+01  1.4511142466842981e+02  1.1192039987742471e+02  7.2173612811563757e+01  9.2827876973173915e+01  1.8156525753129179e+02  1.6399065907135812e+02  1.6080995712928606e+02  1.5868010863507436e+02  1.3969562258786752e+02  1.7416286891317984e+02  0.0000000000000000e+00  2.1300178840383104e+01  9.3202911351255437e+00  1.6055310112917357e+02  1.0096831554925031e+02  2.4562786456327395e+00  1.0899880742799418e+02  8.7126112566122501e+01  9.5647990802470900e+01  1.3130112218070453e+00  2.0609859395918086e+01  9.4494223309093513e+01  0.0000000000000000e+00  1.0341403217304773e+02  1.6472551076154534e+02  1.7670519683737945e+02  1.6938454891322533e+02  1.7171244087433521e+02  2.5752883769505335e+01  3.9589892692513203e+01  8.0988558607845505e+01  1.6370875272791537e+02  8.9328323020023230e+00  1.8707978559303263e+02  2.7898827616474879e+01  1.4091615558219829e+02  2.2032391437718570e+00  1.3507945059737969e+02  1.1535302380710543e+02  1.3722053063029605e+02  1.5683109550467529e+02  6.7420502445605393e+01  1.4735538560931607e+01  1.2846272681551338e+02  5.9225871356811375e+01  1.0093173338470946e+02  9.9902395497720249e+01  1.4280105203279467e+01  4.2213437620721109e+01  1.0111780153127545e+02  1.0434192970366854e+02  1.2450766928979112e+02  1.2844468740565415e+02  1.1787075902370384e+02  2.8828687619625931e+01  1.0402436736938226e+02  1.8057143191348666e+02  1.1054763231433729e+02  1.1469678864060951e+02  1.1717282798919635e+02  1.4236800234909365e+01  3.070540472317793