<?xml version="1.0"?>
<VTKFile type="UnstructuredGrid"  version="0.1"  >
<UnstructuredGrid>
<Piece  NumberOfPoints="441" NumberOfCells="800">
<Points>
<DataArray  type="Float64"  NumberOfComponents="3"  format="ascii">0 0 0  0.05 0 0  0.1 0 0  0.15 0 0  0.2 0 0  0.25 0 0  0.3 0 0  0.35 0 0  0.4 0 0  0.45 0 0  0.5 0 0  0.55 0 0  0.6 0 0  0.65 0 0  0.7 0 0  0.75 0 0  0.8 0 0  0.85 0 0  0.9 0 0  0.95 0 0  1 0 0  0 0.05 0  0.05 0.05 0  0.1 0.05 0  0.15 0.05 0  0.2 0.05 0  0.25 0.05 0  0.3 0.05 0  0.35 0.05 0  0.4 0.05 0  0.45 0.05 0  0.5 0.05 0  0.55 0.05 0  0.6 0.05 0  0.65 0.05 0  0.7 0.05 0  0.75 0.05 0  0.8 0.05 0  0.85 0.05 0  0.9 0.05 0  0.95 0.05 0  1 0.05 0  0 0.1 0  0.05 0.1 0  0.1 0.1 0  0.15 0.1 0  0.2 0.1 0  0.25 0.1 0  0.3 0.1 0  0.35 0.1 0  0.4 0.1 0  0.45 0.1 0  0.5 0.1 0  0.55 0.1 0  0.6 0.1 0  0.65 0.1 0  0.7 0.1 0  0.75 0.1 0  0.8 0.1 0  0.85 0.1 0  0.9 0.1 0  0.95 0.1 0  1 0.1 0  0 0.15 0  0.05 0.15 0  0.1 0.15 0  0.15 0.15 0  0.2 0.15 0  0.25 0.15 0  0.3 0.15 0  0.35 0.15 0  0.4 0.15 0  0.45 0.15 0  0.5 0.15 0  0.55 0.15 0  0.6 0.15 0  0.65 0.15 0  0.7 0.15 0  0.75 0.15 0  0.8 0.15 0  0.85 0.15 0  0.9 0.15 0  0.95 0.15 0  1 0.15 0  0 0.2 0  0.05 0.2 0  0.1 0.2 0  0.15 0.2 0  0.2 0.2 0  0.25 0.2 0  0.3 0.2 0  0.35 0.2 0  0.4 0.2 0  0.45 0.2 0  0.5 0.2 0  0.55 0.2 0  0.6 0.2 0  0.65 0.2 0  0.7 0.2 0  0.75 0.2 0  0.8 0.2 0  0.85 0.2 0  0.9 0.2 0  0.95 0.2 0  1 0.2 0  0 0.25 0  0.05 0.25 0  0.1 0.25 0  0.15 0.25 0  0.2 0.25 0  0.25 0.25 0  0.3 0.25 0  0.35 0.25 0  0.4 0.25 0  0.45 0.25 0  0.5 0.25 0  0.55 0.25 0  0.6 0.25 0  0.65 0.25 0  0.7 0.25 0  0.75 0.25 0  0.8 0.25 0  0.85 0.25 0  0.9 0.25 0  0.95 0.25 0  1 0.25 0  0 0.3 0  0.05 0.3 0  0.1 0.3 0  0.15 0.3 0  0.2 0.3 0  0.25 0.3 0  0.3 0.3 0  0.35 0.3 0  0.4 0.3 0  0.45 0.3 0  0.5 0.3 0  0.55 0.3 0  0.6 0.3 0  0.65 0.3 0  0.7 0.3 0  0.75 0.3 0  0.8 0.3 0  0.85 0.3 0  0.9 0.3 0  0.95 0.3 0  1 0.3 0  0 0.35 0  0.05 0.35 0  0.1 0.35 0  0.15 0.35 0  0.2 0.35 0  0.25 0.35 0  0.3 0.35 0  0.35 0.35 0  0.4 0.35 0  0.45 0.35 0  0.5 0.35 0  0.55 0.35 0  0.6 0.35 0  0.65 0.35 0  0.7 0.35 0  0.75 0.35 0  0.8 0.35 0  0.85 0.35 0  0.9 0.35 0  0.95 0.35 0  1 0.35 0  0 0.4 0  0.05 0.4 0  0.1 0.4 0  0.15 0.4 0  0.2 0.4 0  0.25 0.4 0  0.3 0.4 0  0.35 0.4 0  0.4 0.4 0  0.45 0.4 0  0.5 0.4 0  0.55 0.4 0  0.6 0.4 0  0.65 0.4 0  0.7 0.4 0  0.75 0.4 0  0.8 0.4 0  0.85 0.4 0  0.9 0.4 0  0.95 0.4 0  1 0.4 0  0 0.45 0  0.05 0.45 0  0.1 0.45 0  0.15 0.45 0  0.2 0.45 0  0.25 0.45 0  0.3 0.45 0  0.35 0.45 0  0.4 0.45 0  0.45 0.45 0  0.5 0.45 0  0.55 0.45 0  0.6 0.45 0  0.65 0.45 0  0.7 0.45 0  0.75 0.45 0  0.8 0.45 0  0.85 0.45 0  0.9 0.45 0  0.95 0.45 0  1 0.45 0  0 0.5 0  0.05 0.5 0  0.1 0.5 0  0.15 0.5 0  0.2 0.5 0  0.25 0.5 0  0.3 0.5 0  0.35 0.5 0  0.4 0.5 0  0.45 0.5 0  0.5 0.5 0  0.55 0.5 0  0.6 0.5 0  0.65 0.5 0  0.7 0.5 0  0.75 0.5 0  0.8 0.5 0  0.85 0.5 0  0.9 0.5 0  0.95 0.5 0  1 0.5 0  0 0.55 0  0.05 0.55 0  0.1 0.55 0  0.15 0.55 0  0.2 0.55 0  0.25 0.55 0  0.3 0.55 0  0.35 0.55 0  0.4 0.55 0  0.45 0.55 0  0.5 0.55 0  0.55 0.55 0  0.6 0.55 0  0.65 0.55 0  0.7 0.55 0  0.75 0.55 0  0.8 0.55 0  0.85 0.55 0  0.9 0.55 0  0.95 0.55 0  1 0.55 0  0 0.6 0  0.05 0.6 0  0.1 0.6 0  0.15 0.6 0  0.2 0.6 0  0.25 0.6 0  0.3 0.6 0  0.35 0.6 0  0.4 0.6 0  0.45 0.6 0  0.5 0.6 0  0.55 0.6 0  0.6 0.6 0  0.65 0.6 0  0.7 0.6 0  0.75 0.6 0  0.8 0.6 0  0.85 0.6 0  0.9 0.6 0  0.95 0.6 0  1 0.6 0  0 0.65 0  0.05 0.65 0  0.1 0.65 0  0.15 0.65 0  0.2 0.65 0  0.25 0.65 0  0.3 0.65 0  0.35 0.65 0  0.4 0.65 0  0.45 0.65 0  0.5 0.65 0  0.55 0.65 0  0.6 0.65 0  0.65 0.65 0  0.7 0.65 0  0.75 0.65 0  0.8 0.65 0  0.85 0.65 0  0.9 0.65 0  0.95 0.65 0  1 0.65 0  0 0.7 0  0.05 0.7 0  0.1 0.7 0  0.15 0.7 0  0.2 0.7 0  0.25 0.7 0  0.3 0.7 0  0.35 0.7 0  0.4 0.7 0  0.45 0.7 0  0.5 0.7 0  0.55 0.7 0  0.6 0.7 0  0.65 0.7 0  0.7 0.7 0  0.75 0.7 0  0.8 0.7 0  0.85 0.7 0  0.9 0.7 0  0.95 0.7 0  1 0.7 0  0 0.75 0  0.05 0.75 0  0.1 0.75 0  0.15 0.75 0  0.2 0.75 0  0.25 0.75 0  0.3 0.75 0  0.35 0.75 0  0.4 0.75 0  0.45 0.75 0  0.5 0.75 0  0.55 0.75 0  0.6 0.75 0  0.65 0.75 0  0.7 0.75 0  0.75 0.75 0  0.8 0.75 0  0.85 0.75 0  0.9 0.75 0  0.95 0.75 0  1 0.75 0  0 0.8 0  0.05 0.8 0  0.1 0.8 0  0.15 0.8 0  0.2 0.8 0  0.25 0.8 0  0.3 0.8 0  0.35 0.8 0  0.4 0.8 0  0.45 0.8 0  0.5 0.8 0  0.55 0.8 0  0.6 0.8 0  0.65 0.8 0  0.7 0.8 0  0.75 0.8 0  0.8 0.8 0  0.85 0.8 0  0.9 0.8 0  0.95 0.8 0  1 0.8 0  0 0.85 0  0.05 0.85 0  0.1 0.85 0  0.15 0.85 0  0.2 0.85 0  0.25 0.85 0  0.3 0.85 0  0.35 0.85 0  0.4 0.85 0  0.45 0.85 0  0.5 0.85 0  0.55 0.85 0  0.6 0.85 0  0.65 0.85 0  0.7 0.85 0  0.75 0.85 0  0.8 0.85 0  0.85 0.85 0  0.9 0.85 0  0.95 0.85 0  1 0.85 0  0 0.9 0  0.05 0.9 0  0.1 0.9 0  0.15 0.9 0  0.2 0.9 0  0.25 0.9 0  0.3 0.9 0  0.35 0.9 0  0.4 0.9 0  0.45 0.9 0  0.5 0.9 0  0.55 0.9 0  0.6 0.9 0  0.65 0.9 0  0.7 0.9 0  0.75 0.9 0  0.8 0.9 0  0.85 0.9 0  0.9 0.9 0  0.95 0.9 0  1 0.9 0  0 0.95 0  0.05 0.95 0  0.1 0.95 0  0.15 0.95 0  0.2 0.95 0  0.25 0.95 0  0.3 0.95 0  0.35 0.95 0  0.4 0.95 0  0.45 0.95 0  0.5 0.95 0  0.55 0.95 0  0.6 0.95 0  0.65 0.95 0  0.7 0.95 0  0.75 0.95 0  0.8 0.95 0  0.85 0.95 0  0.9 0.95 0  0.95 0.95 0  1 0.95 0  0 1 0  0.05 1 0  0.1 1 0  0.15 1 0  0.2 1 0  0.25 1 0  0.3 1 0  0.35 1 0  0.4 1 0  0.45 1 0  0.5 1 0  0.55 1 0  0.6 1 0  0.65 1 0  0.7 1 0  0.75 1 0  0.8 1 0  0.85 1 0  0.9 1 0  0.95 1 0  1 1 0  </DataArray>
</Points>
<Cells>
[...]
<PointData  Scalars="f_25"> 
<DataArray  type="Float64"  Name="f_25"  format="ascii">0.0000000000000000e+00  0.0000000000000000e+00  0.0000000000000000e+00  0.0000000000000000e+00  0.0000000000000000e+00  0.0000000000000000e+00  0.0000000000000000e+00  0.0000000000000000e+00  0.0000000000000000e+00  0.0000000000000000e+00  0.0000000000000000e+00  0.0000000000000000e+00  0.0000000000000000e+00  0.0000000000000000e+00  0.0000000000000000e+00  0.0000000000000000e+00  0.0000000000000000e+00  0.0000000000000000e+00  0.0000000000000000e+00  0.0000000000000000e+00  0.0000000000000000e+00  0.0000000000000000e+00  7.5420437747966384e-06  1.9779605181554817e-05  3.7870097939581536e-05  6.3077576111131639e-05  9.6657295403338773e-05  1.3974125510096019e-04  1.9321271739816887e-04  2.5756788878147219e-04  3.3276320589600996e-04  4.1804118426156127e-04  5.1171630026505572e-04  6.1088289768415746e-04  7.1097614927305094e-04  8.0506875598703711e-04  8.8270935679690763e-04  9.2797996989829547e-04  9.1620978751597970e-04  8.0825957821360609e-04  5.3993479298045956e-04  0.0000000000000000e+00  0.0000000000000000e+00  1.9779605181554817e-05  5.1138682455907633e-05  9.7152590749981411e-05  1.6103845670354809e-04  2.4595015743234157e-04  3.5471452797600933e-04  4.8952286214085301e-04  6.5158404375485453e-04  8.4073763255608405e-04  1.0550088139764319e-03  1.2900572051031455e-03  1.5384221327490067e-03  1.7883896771982654e-03  2.0221884669403846e-03  2.2130404883681717e-03  2.3203120409392174e-03  2.2815563590395612e-03  1.9994752704173757e-03  1.3205271569538125e-03  0.0000000000000000e+00  0.0000000000000000e+00  3.7870097939581556e-05  9.7152590749981425e-05  1.8362202610599674e-04  3.0327958654757835e-04  4.6197808088119311e-04  6.6494201619994987e-04  9.1619933428203492e-04  1.2179366193395796e-03  1.5697744561741604e-03  1.9679280765691597e-03  2.4041623050137279e-03  2.8643586293626211e-03  3.3263717843854614e-03  3.7566436672665880e-03  4.1047355350733675e-03  4.2944958369866421e-03  4.2099496472579132e-03  3.6731304817882713e-03  2.4100230257059407e-03  0.0000000000000000e+00  0.0000000000000000e+00  6.3077576111131680e-05  1.6103845670354820e-04  3.0327958654757846e-04  4.9956221542272192e-04  7.5939001054594279e-04  1.0912263986936207e-03  1.5015691084731475e-03  1.9938966436596432e-03  2.5674784703671495e-03  3.2159896903381194e-03  3.9257801516178782e-03  4.6735018393442053e-03  5.4225767829784851e-03  6.1176646446935200e-03  6.6758329832277332e-03  6.9725103903723780e-03  6.8194917164071693e-03  5.9312950629454636e-03  3.8752174482306156e-03  0.0000000000000000e+00  0.0000000000000000e+00  9.6657295403338827e-05  2.4595015743234167e-04  4.6197808088119322e-04  7.5939001054594279e-04  1.1524393667022973e-03  1.6538014165893564e-03  2.2731763322552659e-03  3.0156958130229850e-03  3.8801170503537977e-03  4.8567116976927687e-03  5.9246224611928175e-03  7.0482445348968581e-03  8.1718667065855139e-03  9.2113459180972104e-03  1.0040955965789831e-02  1.0472720554992191e-02  1.0224519015695949e-02  8.8721236059565896e-03  5.7793324264819694e-03  0.0000000000000000e+00  0.0000000000000000e+00  1.3974125510096030e-04  3.5471452797600949e-04  6.6494201619995009e-04  1.0912263986936209e-03  1.6538014165893564e-03  2.3706434012386282e-03  3.2554752867797101e-03  4.3154850159100831e-03  5.5487311869634173e-03  6.9411010394594798e-03  8.4624960955578463e-03  1.0061620569557957e-02  1.1658303270180578e-02  1.3131657762406537e-02  1.4301543336348147e-02  1.4899713990178818e-02  1.4525765033917525e-02  1.2581636614791985e-02  8.1773115839305407e-03  0.0000000000000000e+00  0.0000000000000000e+00  1.9321271739816898e-04  4.8952286214085311e-04  9.1619933428203492e-04  1.5015691084731464e-03  2.2731763322552650e-03  3.2554752867797097e-03  4.4670982155441468e-03  5.9177243252026557e-03  7.6045086780291470e-03  9.5078834794469352e-03  1.1586288689341711e-02  1.3768987590853491e-02  1.5945534331450933e-02  1.7949641019379008e-02  1.9534105811224275e-02  2.0332102386594903e-02  1.9798551130766069e-02  1.7123670085200944e-02  1.1109513459253179e-02  0.0000000000000000e+00  0.0000000000000000e+00  2.5756788878147224e-04  6.5158404375485453e-04  1.2179366193395796e-03  1.9938966436596432e-03  3.0156958130229858e-03  4.3154850159100849e-03  5.9177243252026583e-03  7.8350347546965252e-03  1.0063452666048380e-02  1.2576836305434906e-02  1.5319841535010835e-02  1.8198365184902934e-02  2.1065599436040586e-02  2.3700799348367219e-02  2.5776501223554644e-02  2.6808243576876872e-02  2.6078918823017681e-02  2.2527954042396627e-02  1.4594050133230185e-02  0.0000000000000000e+00  0.0000000000000000e+00  3.3276320589600990e-04  8.4073763255608426e-04  1.5697744561741615e-03  2.5674784703671513e-03  3.8801170503537969e-03  5.5487311869634173e-03  7.6045086780291505e-03  1.0063452666048382e-02  1.2920264410744821e-02  1.6141116306024411e-02  1.9654571561343710e-02  2.3339255851633045e-02  2.7005944420138546e-02  3.0370439310430850e-02  3.3011938728998796e-02  3.4309557882609448e-02  3.3347364784440378e-02  2.8776042405969461e-02  1.8617659026993541e-02  0.0000000000000000e+00  0.0000000000000000e+00  4.1804118426156143e-04  1.0550088139764326e-03  1.9679280765691610e-03  3.2159896903381207e-03  4.8567116976927687e-03  6.9411010394594807e-03  9.5078834794469387e-03  1.2576836305434907e-02  1.6141116306024415e-02  2.0158175753028133e-02  2.4538343597772204e-02  2.9129352946003200e-02  3.3693950864769347e-02  3.7876170743436688e-02  4.1149845852232338e-02  4.2740525575222989e-02  4.1509280142196590e-02  3.5784319710509938e-02  2.3124618177767418e-02  0.0000000000000000e+00  0.0000000000000000e+00  5.1171630026505604e-04  1.2900572051031465e-03  2.4041623050137287e-03  3.9257801516178782e-03  5.9246224611928158e-03  8.4624960955578428e-03  1.1586288689341707e-02  1.5319841535010840e-02  1.9654571561343714e-02  2.4538343597772200e-02  2.9861476619754537e-02  3.5437818424040993e-02  4.0977465552528396e-02  4.6045873438402850e-02  5.0001766276225879e-02  5.1903469675489596e-02  5.0370258981725126e-02  4.3382507445012347e-02  2.8002685919520442e-02  0.0000000000000000e+00  0.0000000000000000e+00  6.1088289768415757e-04  1.5384221327490071e-03  2.8643586293626206e-03  4.6735018393442027e-03  7.0482445348968503e-03  1.0061620569557946e-02  1.3768987590853484e-02  1.8198365184902927e-02  2.3339255851633049e-02  2.9129352946003190e-02  3.5437818424040958e-02  4.2042709744015971e-02  4.8598566327577829e-02  5.4588065272185717e-02  5.9249005567546371e-02  6.1464764641631725e-02  5.9603062106461033e-02  5.1284937159549210e-02  3.3064314701531067e-02  0.0000000000000000e+00  0.0000000000000000e+00  7.1097614927305094e-04  1.7883896771982650e-03  3.3263717843854601e-03  5.4225767829784799e-03  8.1718667065855000e-03  1.1658303270180565e-02  1.5945534331450920e-02  2.1065599436040569e-02  2.7005944420138542e-02  3.3693950864769326e-02  4.0977465552528368e-02  4.8598566327577801e-02  5.6156037304672987e-02  6.3049687135461857e-02  6.8396732021770171e-02  7.0907112277024051e-02  6.8701175427595407e-02  5.9050351390766684e-02  3.8020468120539080e-02  0.0000000000000000e+00  0.0000000000000000e+00  8.0506875598703690e-04  2.0221884669403842e-03  3.7566436672665858e-03  6.1176646446935131e-03  9.2113459180972052e-03  1.3131657762406523e-02  1.7949641019378987e-02  2.3700799348367198e-02  3.0370439310430819e-02  3.7876170743436667e-02  4.6045873438402836e-02  5.4588065272185703e-02  6.3049687135461871e-02  7.0753804213683505e-02  7.6706650043052688e-02  7.9460012512244757e-02  7.6911662447347498e-02  6.6024259292544546e-02  4.2443381537086711e-02  0.0000000000000000e+00  0.0000000000000000e+00  8.8270935679690742e-04  2.2130404883681713e-03  4.1047355350733658e-03  6.6758329832277297e-03  1.0040955965789824e-02  1.4301543336348138e-02  1.9534105811224254e-02  2.5776501223554637e-02  3.3011938728998776e-02  4.1149845852232324e-02  5.0001766276225830e-02  5.9249005567546288e-02  6.8396732021770157e-02  7.6706650043052702e-02  8.3097289390435994e-02  8.5997707803378773e-02  8.3137663576004869e-02  7.1256294466614592e-02  4.5713911406089013e-02  0.0000000000000000e+00  0.0000000000000000e+00  9.2797996989829503e-04  2.3203120409392157e-03  4.2944958369866369e-03  6.9725103903723702e-03  1.0472720554992177e-02  1.4899713990178799e-02  2.0332102386594882e-02  2.6808243576876844e-02  3.4309557882609400e-02  4.2740525575222954e-02  5.1903469675489554e-02  6.1464764641631663e-02  7.0907112277024051e-02  7.9460012512244826e-02  8.5997707803378842e-02  8.8891172622262510e-02  8.5799143853445781e-02  7.3384531823249874e-02  4.6949639360859899e-02  0.0000000000000000e+00  0.0000000000000000e+00  9.1620978751597905e-04  2.2815563590395586e-03  4.2099496472579072e-03  6.8194917164071571e-03  1.0224519015695932e-02  1.4525765033917502e-02  1.9798551130766048e-02  2.6078918823017643e-02  3.3347364784440343e-02  4.1509280142196563e-02  5.0370258981725070e-02  5.9603062106460970e-02  6.8701175427595407e-02  7.6911662447347512e-02  8.3137663576004883e-02  8.5799143853445795e-02  8.2640814901579152e-02  7.0481422493677476e-02  4.4913952188217976e-02  0.0000000000000000e+00  0.0000000000000000e+00  8.0825957821360533e-04  1.9994752704173731e-03  3.6731304817882661e-03  5.9312950629454523e-03  8.8721236059565722e-03  1.2581636614791962e-02  1.7123670085200909e-02  2.2527954042396596e-02  2.8776042405969444e-02  3.5784319710509917e-02  4.3382507445012347e-02  5.1284937159549203e-02  5.9050351390766691e-02  6.6024259292544532e-02  7.1256294466614578e-02  7.3384531823249874e-02  7.0481422493677504e-02  5.9866540991779571e-02  3.7919985465675946e-02  0.0000000000000000e+00  0.0000000000000000e+00  5.3993479298045891e-04  1.3205271569538104e-03  2.4100230257059368e-03  3.8752174482306074e-03  5.7793324264819573e-03  8.1773115839305303e-03  1.1109513459253161e-02  1.4594050133230171e-02  1.8617659026993531e-02  2.3124618177767415e-02  2.8002685919520438e-02  3.3064314701531060e-02  3.8020468120539087e-02  4.2443381537086690e-02  4.5713911406089013e-02  4.6949639360859920e-02  4.4913952188217990e-02  3.7919985465675952e-02  2.3783722462944350e-02  0.0000000000000000e+00  0.0000000000000000e+00  0.0000000000000000e+00  0.0000000000000000e+00  0.0000000000000000e+00  0.0000000000000000e+00  0.0000000000000000e+00  0.0000000000000000e+00  0.0000000000000000e+00  0.0000000000000000e+00  0.0000000000000000e+00  0.0000000000000000e+00  0.0000000000000000e+00  0.0000000000000000e+00  0.0000000000000000e+00  0.0000000000000000e+00  0.0000000000000000e+00  0.0000000000000000e+00  0.0000000000000000e+00  0.0000000000000000e+00  0.0000000000000000e+00  0.0000000000000000e+00  </DataArray> 
</PointData> 
</Piece>
</UnstructuredGrid>
</VTKFile>