<?xml version="1.0"?>
<VTKFile type="UnstructuredGrid"  version="0.1"  >
<UnstructuredGrid>
<Piece  NumberOfPoints="441" NumberOfCells="800">
<Points>
<DataArray  type="Float64"  NumberOfComponents="3"  format="ascii">0 0 0  0.05 0 0  0.1 0 0  0.15 0 0  0.2 0 0  0.25 0 0  0.3 0 0  0.35 0 0  0.4 0 0  0.45 0 0  0.5 0 0  0.55 0 0  0.6 0 0  0.65 0 0  0.7 0 0  0.75 0 0  0.8 0 0  0.85 0 0  0.9 0 0  0.95 0 0  1 0 0  0 0.05 0  0.05 0.05 0  0.1 0.05 0  0.15 0.05 0  0.2 0.05 0  0.25 0.05 0  0.3 0.05 0  0.35 0.05 0  0.4 0.05 0  0.45 0.05 0  0.5 0.05 0  0.55 0.05 0  0.6 0.05 0  0.65 0.05 0  0.7 0.05 0  0.75 0.05 0  0.8 0.05 0  0.85 0.05 0  0.9 0.05 0  0.95 0.05 0  1 0.05 0  0 0.1 0  0.05 0.1 0  0.1 0.1 0  0.15 0.1 0  0.2 0.1 0  0.25 0.1 0  0.3 0.1 0  0.35 0.1 0  0.4 0.1 0  0.45 0.1 0  0.5 0.1 0  0.55 0.1 0  0.6 0.1 0  0.65 0.1 0  0.7 0.1 0  0.75 0.1 0  0.8 0.1 0  0.85 0.1 0  0.9 0.1 0  0.95 0.1 0  1 0.1 0  0 0.15 0  0.05 0.15 0  0.1 0.15 0  0.15 0.15 0  0.2 0.15 0  0.25 0.15 0  0.3 0.15 0  0.35 0.15 0  0.4 0.15 0  0.45 0.15 0  0.5 0.15 0  0.55 0.15 0  0.6 0.15 0  0.65 0.15 0  0.7 0.15 0  0.75 0.15 0  0.8 0.15 0  0.85 0.15 0  0.9 0.15 0  0.95 0.15 0  1 0.15 0  0 0.2 0  0.05 0.2 0  0.1 0.2 0  0.15 0.2 0  0.2 0.2 0  0.25 0.2 0  0.3 0.2 0  0.35 0.2 0  0.4 0.2 0  0.45 0.2 0  0.5 0.2 0  0.55 0.2 0  0.6 0.2 0  0.65 0.2 0  0.7 0.2 0  0.75 0.2 0  0.8 0.2 0  0.85 0.2 0  0.9 0.2 0  0.95 0.2 0  1 0.2 0  0 0.25 0  0.05 0.25 0  0.1 0.25 0  0.15 0.25 0  0.2 0.25 0  0.25 0.25 0  0.3 0.25 0  0.35 0.25 0  0.4 0.25 0  0.45 0.25 0  0.5 0.25 0  0.55 0.25 0  0.6 0.25 0  0.65 0.25 0  0.7 0.25 0  0.75 0.25 0  0.8 0.25 0  0.85 0.25 0  0.9 0.25 0  0.95 0.25 0  1 0.25 0  0 0.3 0  0.05 0.3 0  0.1 0.3 0  0.15 0.3 0  0.2 0.3 0  0.25 0.3 0  0.3 0.3 0  0.35 0.3 0  0.4 0.3 0  0.45 0.3 0  0.5 0.3 0  0.55 0.3 0  0.6 0.3 0  0.65 0.3 0  0.7 0.3 0  0.75 0.3 0  0.8 0.3 0  0.85 0.3 0  0.9 0.3 0  0.95 0.3 0  1 0.3 0  0 0.35 0  0.05 0.35 0  0.1 0.35 0  0.15 0.35 0  0.2 0.35 0  0.25 0.35 0  0.3 0.35 0  0.35 0.35 0  0.4 0.35 0  0.45 0.35 0  0.5 0.35 0  0.55 0.35 0  0.6 0.35 0  0.65 0.35 0  0.7 0.35 0  0.75 0.35 0  0.8 0.35 0  0.85 0.35 0  0.9 0.35 0  0.95 0.35 0  1 0.35 0  0 0.4 0  0.05 0.4 0  0.1 0.4 0  0.15 0.4 0  0.2 0.4 0  0.25 0.4 0  0.3 0.4 0  0.35 0.4 0  0.4 0.4 0  0.45 0.4 0  0.5 0.4 0  0.55 0.4 0  0.6 0.4 0  0.65 0.4 0  0.7 0.4 0  0.75 0.4 0  0.8 0.4 0  0.85 0.4 0  0.9 0.4 0  0.95 0.4 0  1 0.4 0  0 0.45 0  0.05 0.45 0  0.1 0.45 0  0.15 0.45 0  0.2 0.45 0  0.25 0.45 0  0.3 0.45 0  0.35 0.45 0  0.4 0.45 0  0.45 0.45 0  0.5 0.45 0  0.55 0.45 0  0.6 0.45 0  0.65 0.45 0  0.7 0.45 0  0.75 0.45 0  0.8 0.45 0  0.85 0.45 0  0.9 0.45 0  0.95 0.45 0  1 0.45 0  0 0.5 0  0.05 0.5 0  0.1 0.5 0  0.15 0.5 0  0.2 0.5 0  0.25 0.5 0  0.3 0.5 0  0.35 0.5 0  0.4 0.5 0  0.45 0.5 0  0.5 0.5 0  0.55 0.5 0  0.6 0.5 0  0.65 0.5 0  0.7 0.5 0  0.75 0.5 0  0.8 0.5 0  0.85 0.5 0  0.9 0.5 0  0.95 0.5 0  1 0.5 0  0 0.55 0  0.05 0.55 0  0.1 0.55 0  0.15 0.55 0  0.2 0.55 0  0.25 0.55 0  0.3 0.55 0  0.35 0.55 0  0.4 0.55 0  0.45 0.55 0  0.5 0.55 0  0.55 0.55 0  0.6 0.55 0  0.65 0.55 0  0.7 0.55 0  0.75 0.55 0  0.8 0.55 0  0.85 0.55 0  0.9 0.55 0  0.95 0.55 0  1 0.55 0  0 0.6 0  0.05 0.6 0  0.1 0.6 0  0.15 0.6 0  0.2 0.6 0  0.25 0.6 0  0.3 0.6 0  0.35 0.6 0  0.4 0.6 0  0.45 0.6 0  0.5 0.6 0  0.55 0.6 0  0.6 0.6 0  0.65 0.6 0  0.7 0.6 0  0.75 0.6 0  0.8 0.6 0  0.85 0.6 0  0.9 0.6 0  0.95 0.6 0  1 0.6 0  0 0.65 0  0.05 0.65 0  0.1 0.65 0  0.15 0.65 0  0.2 0.65 0  0.25 0.65 0  0.3 0.65 0  0.35 0.65 0  0.4 0.65 0  0.45 0.65 0  0.5 0.65 0  0.55 0.65 0  0.6 0.65 0  0.65 0.65 0  0.7 0.65 0  0.75 0.65 0  0.8 0.65 0  0.85 0.65 0  0.9 0.65 0  0.95 0.65 0  1 0.65 0  0 0.7 0  0.05 0.7 0  0.1 0.7 0  0.15 0.7 0  0.2 0.7 0  0.25 0.7 0  0.3 0.7 0  0.35 0.7 0  0.4 0.7 0  0.45 0.7 0  0.5 0.7 0  0.55 0.7 0  0.6 0.7 0  0.65 0.7 0  0.7 0.7 0  0.75 0.7 0  0.8 0.7 0  0.85 0.7 0  0.9 0.7 0  0.95 0.7 0  1 0.7 0  0 0.75 0  0.05 0.75 0  0.1 0.75 0  0.15 0.75 0  0.2 0.75 0  0.25 0.75 0  0.3 0.75 0  0.35 0.75 0  0.4 0.75 0  0.45 0.75 0  0.5 0.75 0  0.55 0.75 0  0.6 0.75 0  0.65 0.75 0  0.7 0.75 0  0.75 0.75 0  0.8 0.75 0  0.85 0.75 0  0.9 0.75 0  0.95 0.75 0  1 0.75 0  0 0.8 0  0.05 0.8 0  0.1 0.8 0  0.15 0.8 0  0.2 0.8 0  0.25 0.8 0  0.3 0.8 0  0.35 0.8 0  0.4 0.8 0  0.45 0.8 0  0.5 0.8 0  0.55 0.8 0  0.6 0.8 0  0.65 0.8 0  0.7 0.8 0  0.75 0.8 0  0.8 0.8 0  0.85 0.8 0  0.9 0.8 0  0.95 0.8 0  1 0.8 0  0 0.85 0  0.05 0.85 0  0.1 0.85 0  0.15 0.85 0  0.2 0.85 0  0.25 0.85 0  0.3 0.85 0  0.35 0.85 0  0.4 0.85 0  0.45 0.85 0  0.5 0.85 0  0.55 0.85 0  0.6 0.85 0  0.65 0.85 0  0.7 0.85 0  0.75 0.85 0  0.8 0.85 0  0.85 0.85 0  0.9 0.85 0  0.95 0.85 0  1 0.85 0  0 0.9 0  0.05 0.9 0  0.1 0.9 0  0.15 0.9 0  0.2 0.9 0  0.25 0.9 0  0.3 0.9 0  0.35 0.9 0  0.4 0.9 0  0.45 0.9 0  0.5 0.9 0  0.55 0.9 0  0.6 0.9 0  0.65 0.9 0  0.7 0.9 0  0.75 0.9 0  0.8 0.9 0  0.85 0.9 0  0.9 0.9 0  0.95 0.9 0  1 0.9 0  0 0.95 0  0.05 0.95 0  0.1 0.95 0  0.15 0.95 0  0.2 0.95 0  0.25 0.95 0  0.3 0.95 0  0.35 0.95 0  0.4 0.95 0  0.45 0.95 0  0.5 0.95 0  0.55 0.95 0  0.6 0.95 0  0.65 0.95 0  0.7 0.95 0  0.75 0.95 0  0.8 0.95 0  0.85 0.95 0  0.9 0.95 0  0.95 0.95 0  1 0.95 0  0 1 0  0.05 1 0  0.1 1 0  0.15 1 0  0.2 1 0  0.25 1 0  0.3 1 0  0.35 1 0  0.4 1 0  0.45 1 0  0.5 1 0  0.55 1 0  0.6 1 0  0.65 1 0  0.7 1 0  0.75 1 0  0.8 1 0  0.85 1 0  0.9 1 0  0.95 1 0  1 1 0  </DataArray>
</Points>
<Cells>
[...]
<PointData  Scalars="f_25"> 
<DataArray  type="Float64"  Name="f_25"  format="ascii">0.0000000000000000e+00  0.0000000000000000e+00  0.0000000000000000e+00  0.0000000000000000e+00  0.0000000000000000e+00  0.0000000000000000e+00  0.0000000000000000e+00  0.0000000000000000e+00  0.0000000000000000e+00  0.0000000000000000e+00  0.0000000000000000e+00  0.0000000000000000e+00  0.0000000000000000e+00  0.0000000000000000e+00  0.0000000000000000e+00  0.0000000000000000e+00  0.0000000000000000e+00  0.0000000000000000e+00  0.0000000000000000e+00  0.0000000000000000e+00  0.0000000000000000e+00  0.0000000000000000e+00  8.0664473633744921e-05  2.0780322317443718e-04  3.8896905337314290e-04  6.3029282154935379e-04  9.3514755173409016e-04  1.3032024514228059e-03  1.7298356436266198e-03  2.2059263714088884e-03  2.7180068482946826e-03  3.2486802172378305e-03  3.7771180408770083e-03  4.2793305197964034e-03  4.7277272903549685e-03  5.0892017850875972e-03  5.3204797863720503e-03  5.3585850707719949e-03  5.1025762717480765e-03  4.3791127132372766e-03  2.8756335279652647e-03  0.0000000000000000e+00  0.0000000000000000e+00  2.0780322317443721e-04  5.2849369480166477e-04  9.8243222676037446e-04  1.5852787053588229e-03  2.3455214479488982e-03  3.2623680311524373e-03  4.3243539799464464e-03  5.5088325600830728e-03  6.7823263034189436e-03  8.1015134307911747e-03  9.4143799996845648e-03  1.0660761075516220e-02  1.1771051592678806e-02  1.2661163057741270e-02  1.3220624633725295e-02  1.3288725174021252e-02  1.2610160379184865e-02  1.0755718390857986e-02  6.9834071730782770e-03  0.0000000000000000e+00  0.0000000000000000e+00  3.8896905337314317e-04  9.8243222676037446e-04  1.8181309987371900e-03  2.9250012509398136e-03  4.3187307983435213e-03  5.9980088292798843e-03  7.9420240199039767e-03  1.0109518216647967e-02  1.2439372176394726e-02  1.4852311990153539e-02  1.7252872228014166e-02  1.9530181493576545e-02  2.1555327543038755e-02  2.3171803327724554e-02  2.4173509726184476e-02  2.4261528403972738e-02  2.2965745542036561e-02  1.9509675956627805e-02  1.2586172508807341e-02  0.0000000000000000e+00  0.0000000000000000e+00  6.3029282154935401e-04  1.5852787053588233e-03  2.9250012509398149e-03  4.6956574603812364e-03  6.9224331302356872e-03  9.6035121970583313e-03  1.2706064567413151e-02  1.6164672644860989e-02  1.9882153665371018e-02  2.3732120447027265e-02  2.7561896999022055e-02  3.1193492336512241e-02  3.4419059547256874e-02  3.6985329480438839e-02  3.8558475861892927e-02  3.8656176841662754e-02  3.6526652525859946e-02  3.0944694854978343e-02  1.9882428306864153e-02  0.0000000000000000e+00  0.0000000000000000e+00  9.3514755173409049e-04  2.3455214479488986e-03  4.3187307983435230e-03  6.9224331302356881e-03  1.0193777082137031e-02  1.4130561848620994e-02  1.8685267783009971e-02  2.3762615173293200e-02  2.9220583236463475e-02  3.4873924705855028e-02  4.0498144084858495e-02  4.5830568992360390e-02  5.0563296351986933e-02  5.4320043547303742e-02  5.6604727244538501e-02  5.6703258870834078e-02  5.3510916978206639e-02  4.5245356789288975e-02  2.8990348220459480e-02  0.0000000000000000e+00  0.0000000000000000e+00  1.3032024514228063e-03  3.2623680311524390e-03  5.9980088292798895e-03  9.6035121970583382e-03  1.4130561848621000e-02  1.9576858963782074e-02  2.5877737358485784e-02  3.2902580412247126e-02  4.0455951608499095e-02  4.8282113234699789e-02  5.6070130063977860e-02  6.3454907512622741e-02  7.0006992033418300e-02  7.5200264747633416e-02  7.8341104876265805e-02  7.8434390871624918e-02  7.3950101285942149e-02  6.2438928524066663e-02  3.9926890123123823e-02  0.0000000000000000e+00  0.0000000000000000e+00  1.7298356436266211e-03  4.3243539799464490e-03  7.9420240199039819e-03  1.2706064567413158e-02  1.8685267783009978e-02  2.5877737358485781e-02  3.4199645029245135e-02  4.3480213930119055e-02  5.3462831193919737e-02  6.3810560885337417e-02  7.4112374772478506e-02  8.3883983663125591e-02  9.2553859561830029e-02  9.9420274024496505e-02  1.0355811437226144e-01  1.0364393515147600e-01  9.7653312993306041e-02  8.2365757327819755e-02  5.2590043907052596e-02  0.0000000000000000e+00  0.0000000000000000e+00  2.2059263714088902e-03  5.5088325600830780e-03  1.0109518216647975e-02  1.6164672644860996e-02  2.3762615173293207e-02  3.2902580412247119e-02  4.3480213930119062e-02  5.5280829155721668e-02  6.7980331856836412e-02  8.1151650273754164e-02  9.4272023756492185e-02  1.0672341213701837e-01  1.1777414133040952e-01  1.2652396322493281e-01  1.3178600034094301e-01  1.3186646886949749e-01  1.2418567034905457e-01  1.0466117971610607e-01  6.6747546597636501e-02  0.0000000000000000e+00  0.0000000000000000e+00  2.7180068482946852e-03  6.7823263034189531e-03  1.2439372176394741e-02  1.9882153665371039e-02  2.9220583236463496e-02  4.0455951608499109e-02  5.3462831193919758e-02  6.7980331856836412e-02  8.3612633967118960e-02  9.9836189398599687e-02  1.1600792331435668e-01  1.3136497149569826e-01  1.4500142480825795e-01  1.5580036839197714e-01  1.6228906326899423e-01  1.6237016368465770e-01  1.5286132847139011e-01  1.2874916754576232e-01  8.2032593783713526e-02  0.0000000000000000e+00  0.0000000000000000e+00  3.2486802172378331e-03  8.1015134307911834e-03  1.4852311990153558e-02  2.3732120447027286e-02  3.4873924705855042e-02  4.8282113234699803e-02  6.3810560885337445e-02  8.1151650273754164e-02  9.9836189398599673e-02  1.1924117139896151e-01  1.3859867048052618e-01  1.5699463395899266e-01  1.7334031863076449e-01  1.8629065794946251e-01  1.9407165066246063e-01  1.9416152432581177e-01  1.8274679321251638e-01  1.5384416637862966e-01  9.7944377074758962e-02  0.0000000000000000e+00  0.0000000000000000e+00  3.7771180408770109e-03  9.4143799996845769e-03  1.7252872228014183e-02  2.7561896999022079e-02  4.0498144084858502e-02  5.6070130063977867e-02  7.4112374772478506e-02  9.4272023756492102e-02  1.1600792331435664e-01  1.3859867048052613e-01  1.6115191668359904e-01  1.8260193462707155e-01  2.0167550442576909e-01  2.1679646036978650e-01  2.2588534892027007e-01  2.2599105267875477e-01  2.1266472992746829e-01  1.7895289726829008e-01  1.1384820434981496e-01  0.0000000000000000e+00  0.0000000000000000e+00  4.2793305197964069e-03  1.0660761075516233e-02  1.9530181493576562e-02  3.1193492336512252e-02  4.5830568992360377e-02  6.3454907512622699e-02  8.3883983663125522e-02  1.0672341213701828e-01  1.3136497149569806e-01  1.5699463395899255e-01  1.8260193462707153e-01  2.0697604752322735e-01  2.2866609606012833e-01  2.4587235329604992e-01  2.5621957015469443e-01  2.5634210619922387e-01  2.4118164457380151e-01  2.0286216098434845e-01  1.2896629897035738e-01  0.0000000000000000e+00  0.0000000000000000e+00  4.7277272903549720e-03  1.1771051592678819e-02  2.1555327543038769e-02  3.4419059547256874e-02  5.0563296351986906e-02  7.0006992033418244e-02  9.2553859561829974e-02  1.1777414133040941e-01  1.4500142480825784e-01  1.7334031863076441e-01  2.0167550442576901e-01  2.2866609606012825e-01  2.5270062787778663e-01  2.7177614740287998e-01  2.8324824940047033e-01  2.8337586446022295e-01  2.6655416317786368e-01  2.2409154710278328e-01  1.4234591844218383e-01  0.0000000000000000e+00  0.0000000000000000e+00  5.0892017850875998e-03  1.2661163057741273e-02  2.3171803327724557e-02  3.6985329480438839e-02  5.4320043547303735e-02  7.5200264747633375e-02  9.9420274024496436e-02  1.2652396322493278e-01  1.5580036839197706e-01  1.8629065794946245e-01  2.1679646036978645e-01  2.4587235329605003e-01  2.7177614740288009e-01  2.9233807338574908e-01  3.0469259990392822e-01  3.0479291878745057e-01  2.8659742826853091e-01  2.4078099562170838e-01  1.5278606608323284e-01  0.0000000000000000e+00  0.0000000000000000e+00  5.3204797863720546e-03  1.3220624633725302e-02  2.4173509726184487e-02  3.8558475861892927e-02  5.6604727244538480e-02  7.8341104876265735e-02  1.0355811437226135e-01  1.3178600034094307e-01  1.6228906326899423e-01  1.9407165066246068e-01  2.2588534892027007e-01  2.5621957015469443e-01  2.8324824940047033e-01  3.0469259990392827e-01  3.1754245174628731e-01  3.1755550076136002e-01  2.9842479413416934e-01  2.5047240292702849e-01  1.5869822000163045e-01  0.0000000000000000e+00  0.0000000000000000e+00  5.3585850707719958e-03  1.3288725174021254e-02  2.4261528403972731e-02  3.8656176841662747e-02  5.6703258870834043e-02  7.8434390871624862e-02  1.0364393515147596e-01  1.3186646886949749e-01  1.6237016368465790e-01  1.9416152432581182e-01  2.2599105267875474e-01  2.5634210619922393e-01  2.8337586446022295e-01  3.0479291878745091e-01  3.1755550076136035e-01  3.1739326018460107e-01  2.9799098505565436e-01  2.4973351326677726e-01  1.5787236927987927e-01  0.0000000000000000e+00  0.0000000000000000e+00  5.1025762717480765e-03  1.2610160379184859e-02  2.2965745542036543e-02  3.6526652525859911e-02  5.3510916978206591e-02  7.3950101285942052e-02  9.7653312993305999e-02  1.2418567034905453e-01  1.5286132847139011e-01  1.8274679321251633e-01  2.1266472992746824e-01  2.4118164457380145e-01  2.6655416317786362e-01  2.8659742826853107e-01  2.9842479413416945e-01  2.9799098505565436e-01  2.7935435915373674e-01  2.3356698713478882e-01  1.4712441842334742e-01  0.0000000000000000e+00  0.0000000000000000e+00  4.3791127132372749e-03  1.0755718390857981e-02  1.9509675956627791e-02  3.0944694854978305e-02  4.5245356789288926e-02  6.2438928524066614e-02  8.2365757327819714e-02  1.0466117971610601e-01  1.2874916754576229e-01  1.5384416637862963e-01  1.7895289726829017e-01  2.0286216098434848e-01  2.2409154710278334e-01  2.4078099562170840e-01  2.5047240292702866e-01  2.4973351326677720e-01  2.3356698713478888e-01  1.9456364752139779e-01  1.2183592712166164e-01  0.0000000000000000e+00  0.0000000000000000e+00  2.8756335279652629e-03  6.9834071730782718e-03  1.2586172508807331e-02  1.9882428306864142e-02  2.8990348220459441e-02  3.9926890123123789e-02  5.2590043907052540e-02  6.6747546597636473e-02  8.2032593783713484e-02  9.7944377074758948e-02  1.1384820434981492e-01  1.2896629897035725e-01  1.4234591844218383e-01  1.5278606608323286e-01  1.5869822000163056e-01  1.5787236927987933e-01  1.4712441842334745e-01  1.2183592712166164e-01  7.5524865471007327e-02  0.0000000000000000e+00  0.0000000000000000e+00  0.0000000000000000e+00  0.0000000000000000e+00  0.0000000000000000e+00  0.0000000000000000e+00  0.0000000000000000e+00  0.0000000000000000e+00  0.0000000000000000e+00  0.0000000000000000e+00  0.0000000000000000e+00  0.0000000000000000e+00  0.0000000000000000e+00  0.0000000000000000e+00  0.0000000000000000e+00  0.0000000000000000e+00  0.0000000000000000e+00  0.0000000000000000e+00  0.0000000000000000e+00  0.0000000000000000e+00  0.0000000000000000e+00  0.0000000000000000e+00  </DataArray> 
</PointData> 
</Piece>
</UnstructuredGrid>
</VTKFile>