<?xml version="1.0"?>
<VTKFile type="UnstructuredGrid"  version="0.1"  >
<UnstructuredGrid>
<Piece  NumberOfPoints="484" NumberOfCells="844">
<Points>
<DataArray  type="Float64"  NumberOfComponents="3"  format="ascii">0 1 0  0 0 0  2 0 0  2 1 0  1.78374517251019 0.597409840761405 0  1.8 0.5 0  1.78374517251019 0.4025901592385949 0  1.736742152818918 0.3157361861930998 0  1.664084447436728 0.2488500565212414 0  1.57364564614224 0.2091799202182009 0  1.4752261963583 0.2010246520979991 0  1.379491372604109 0.2252680020034827 0  1.296815528512278 0.2792828267980605 0  1.236157874638053 0.3572157820888781 0  1.204091608979183 0.4506216229157799 0  1.204091608979183 0.5493783770842202 0  1.236157874638053 0.6427842179111221 0  1.296815528512278 0.7207171732019395 0  1.379491372604109 0.7747319979965173 0  1.4752261963583 0.798975347902001 0  1.57364564614224 0.790820079781799 0  1.664084447436728 0.7511499434787585 0  1.736742152818918 0.6842638138069004 0  1 0 0  1 1 0  2 0.5 0  1.5 0 0  1.5 1 0  0 0.5 0  0.5 0 0  0.5 1 0  0.5 0.5 0  0.25 0 0  0 0.25 0  0.25 1 0  0 0.75 0  0.75 0 0  0.8427491755246432 0.6572508244753567 0  0.875 0.3175300405945146 0  0.2916666666666666 0.7083333333333334 0  0.25 0.375 0  0.610247075176929 0.25 0  0.5416666666666666 0.75 0  0.75 1 0  1.25 1 0  1.75 0 0  2 0.75 0  2 0.25 0  1.25 0 0  1.75 1 0  0.375 0.1875 0  1.069495412948943 0.2107268018903497 0  1.043953358214098 0.7723871654579093 0  0.7027473652812255 0.4401003809181993 0  0.9926636277338787 0.5 0  0.18359375 0.1953125 0  0.8672518169507546 0.8478050486602485 0  0.1825980392156863 0.5526960784313726 0  0.375 0.8690476190476191 0  0.1614583333333333 0.8385416666666667 0  1.838152029260268 0.1618479707397315 0  1.838152029260268 0.8381520292602684 0  0.6412239774629146 0.6049348926450698 0  0.908015859390367 0.1471581891158557 0  0.6935429486943157 0.8352419871991814 0  0.4620194896849508 0.3339422041260197 0  0.3386260301221938 0.5102479397556123 0  0.7621341763941456 0.207273156180265 0  1.190810493169511 0.8465129988005128 0  1.020856530275323 0.3526481456704165 0  0.849075543720454 0.4634191137771964 0  0.431547619047619 0.6398809523809523 0  0.1362784921584264 0.6929750044954186 0  0.625 0 0  1.211817740048463 0.1499656054283927 0  0.1209635416666667 0.3205729166666667 0  0.9847249395404201 0.6425172705623372 0  1.625 1 0  1.625 0 0  0.512541963799791 0.1437779758665274 0  1.872282141090511 0.7014690197214168 0  1.872282141090511 0.2985309802785833 0  0.125 0 0  0 0.125 0  1.6875 0.8823219300183902 0  1.711427764122643 0.1259391373285045 0  0.5857007603431403 0.379498796222937 0  1.375 0 0  1.375 1 0  1.125 0 0  0.625 1 0  0.5625 0.8819444444444444 0  0.7610741504680187 0.5575659807793669 0  1.110450875748598 0.6337323832732733 0  0.6577022951304317 0.1273651155880749 0  0.875 0 0  2 0.125 0  1.875 0 0  0 0.625 0  0 0.875 0  0.375 1 0  0.875 1 0  0.375 0 0  0.125 1 0  2 0.375 0  2 0.625 0  2 0.875 0  1.875 1 0  1.125 1 0  0 0.375 0  1.0625 0.8940188709769393 0  0.7114206267051376 0.3183251991255057 0  0.1475299223289482 0.4377632092133468 0  1.3125 0.8877418109007456 0  0.9234752109127659 0.7437230339863174 0  0.7221107865264482 0.7076560080572618 0  0.4223710317460317 0.7591765873015873 0  1.9 0.4375 0  1.897595639002155 0.5663469775965522 0  1.152785554711046 0.7393088737226952 0  0.3461782929634525 0.3037021953089684 0  0.3125 0.09375 0  1.401781725111504 0.1121448037276411 0  1.424245257886164 0.8990549890503938 0  1.1294483650248 0.3105690707738273 0  1.0625 0.09621099564344943 0  0.9623305291843423 0.2460686178531891 0  1.5625 0.9044501632644213 0  1.5625 0.0955498367355786 0  0.9003858142570526 0.5621128987007222 0  1.098101493637888 0.5258714973841982 0  0.8036076548228382 0.1008534602376067 0  0.2633928571428572 0.8876488095238095 0  0.414678367247429 0.4321423233700297 0  0.5396363551523156 0.6419112638953035 0  0.6056081230888789 0.484382863312224 0  1.106567824229797 0.4126810507727962 0  0.1875 0.0876953125 0  0.9383159712027753 0.413228628128575 0  0.3318231182251389 0.6132441360004393 0  0.9572003535518292 0.9033403130166413 0  0.8139158579157988 0.7578108536231927 0  0.7935037642338374 0.3782960990749717 0  0.4375 0.07788798159182841 0  0.4651801166362056 0.2329884415152182 0  0.1001277561102753 0.1384033937676143 0  0.08086590340834321 0.5625 0  0.2807001372068105 0.2257861740668578 0  1.758200755851936 0.7804807893682326 0  1.758200755851936 0.2195192106317675 0  1.299092295317702 0.09234276509693498 0  0.7762437823864172 0.8989551585519843 0  0.2393092484544073 0.4725760570540382 0  0.2196974308038731 0.6427328796636128 0  0.4666005291005291 0.9067460317460317 0  0.2102535460314111 0.2890572018230581 0  0.6382336924197988 0.755866356365922 0  1.9291108126569 0.1875 0  1.906843116591586 0.09236830990344484 0  1.777416823280135 0.9100024283712178 0  1.9138312885794 0.7844466473254866 0  1.8125 0.0708891873430996 0  0.2461716367581515 0.7930466367581516 0  0.07073252688172042 0.8125 0  0.0924753097241701 0.9078102849914793 0  1.297145258384448 0.1842975012698211 0  0.09819481312894854 0.2309007919811409 0  0.5788095038920291 0.07974076399829848 0  0.6875 0.9298367502372836 0  1.159540395319097 0.224578200320709 0  0.3363453352414483 0.7869010181686933 0  0.1875 0.9355758238725954 0  1.907485449900501 0.9074854499005005 0  0.3365978736998687 0.3912980497953831 0  0.4965491124765318 0.8247407834101382 0  0.9946582774249307 0.1639483681638828 0  0.9375 0.06326048615849841 0  0.8756881111497786 0.2292784388051621 0  1.1875 0.06393061008153887 0  0.6821274179621576 0.523552776852952 0  0.0625 0 0  0.5677475274357409 0.5611055692012266 0  0.5431475737312214 0.3043571416506436 0  0.4998088888478967 0.412671387743341 0  1.271923827441172 0.8073033768729405 0  1.144079787833831 0.9173285690114767 0  1.234477051037206 0.9178299606103488 0  1.11568375451864 0.8128144767256547 0  0.2474314797351809 0.1437501713946527 0  0.7930672890878172 0.2885047831775271 0  0.9449597450104197 0.8225551103442099 0  1.043994947280002 0.5867037567637329 0  0.2661087310150958 0.5516763929432742 0  0.4198281682230962 0.5132360697563596 0  1.483727637086004 0.1192148509571048 0  1.644440015314982 0.1707099329264654 0  1.124945028809584 0.1498679909491655 0  0.08012249108436301 0.3914377241544016 0  0.07901604382675644 0.4813290943875176 0  0.3285590277777778 0.9345238095238095 0  0.6799566840338123 0.206475911465158 0  0.7241673677530416 0.0784051173135977 0  0.4845379644176867 0.6970096546299323 0  0.366380574163789 0.6838615459620285 0  0.4867321497264777 0.5801966852258245 0  0.7640395474301764 0.6384382550415005 0  1.083199256901168 0.70593594575104 0  1.217075462191161 0.2797909931313028 0  1.643211298668676 0.0801279947560528 0  0.2105033408829201 0.721840481232267 0  0.8507270715979697 0.9249410208158915 0  0.07704872765442947 0.6411254848194414 0  0.6507773567498768 0.6806195200803355 0  0.9470733641222151 0.3386397658003765 0  1.030016179406472 0.4307736739285035 0  1.03199791498579 0.2771711273800254 0  1.4375 0 0  1.922832672853832 0.641006945484222 0  1.921673956988018 0.3609283311808291 0  0.9187936842128259 0.4898579303104234 0  0.8665902213579503 0.3912835464622645 0  0.7761386570796214 0.4503340206716026 0  0.132433467016868 0.7686012208749837 0  0.06518654876787751 0.7144311380370932 0  0.1487479641258986 0.6193056461319167 0  0.8279502161691989 0.1716314414649491 0  0.6175572280885101 0.8292314698563852 0  0.5873000072503324 0.1548333596669089 0  0.7698980460572555 0.8216618727332811 0  1.617763733598075 0.8525091591744496 0  0.5389877149849908 0.2306291033910286 0  1.849558996495297 0.6311079473036412 0  0.9728538111582382 0.5705339341326484 0  1.227062399538353 0.7475356453203694 0  0 0.1875 0  0.443314335737747 0.1642024576913928 0  1.853040416346226 0.3828545874152978 0  0.09375 0.06582068612416771 0  0.9121142119372541 0.6342459506530548 0  0.9934916381906801 0.7169599264150737 0  0.5082308517183852 0.07301033393845233 0  1.172481853825469 0.3875628783986241 0  1.868941529029428 0.226762445294308 0  1.844682638217621 0.7671800450043913 0  0.182919661283971 0.3538607419778741 0  0.05848414090509828 0.2887104402582971 0  0.6353884404914405 0.3218412683149566 0  0.8315333923454293 0.5352240005881821 0  0.8672217446539785 0.07018932011534394 0  1.80101311233155 0.279568722103581 0  0.3976221841274197 0.2547864263727552 0  1.492394819430708 0.9268095616423531 0  1.4375 1 0  0.4002480551263502 0.3646742808612027 0  1.015481490182062 0.8389584788939451 0  1.509525788708048 0.8594387943586543 0  0.2766954419783539 0.3104917240985169 0  0.8125 0 0  1.805618820464136 0.6841482116329501 0  2 0.3125 0  1.930663945015785 0.2598514654979807 0  1.938182498840598 0.7203621302075108 0  0.6760366889878674 0.3770014904269648 0  0.3126876338191231 0.1613332441205846 0  1.1875 1 0  0.7493690982952937 0.1410071076122945 0  0.6160903533663544 0.9291449763223876 0  0.5625 1 0  0.5258727283183805 0.9381254313319531 0  1.6875 0 0  1.696421098492074 0.8130534698261189 0  1.718577535532562 0.9412525626128655 0  1.631092039627162 0.9277993206216887 0  0.3942649591936683 0.5794663232701421 0  1.8125 1 0  1.84298398567314 0.9362797123674823 0  0 0.4375 0  1.427358784481205 0.7868536729492591 0  1.373042687890315 0.8472701648767201 0  1.745050180582884 0.06736044428808222 0  1.778877583539759 0.1294678803835219 0  0.6425024682324467 0.06338694444594203 0  1.9375 0 0  2 0.0625 0  0.4016108198193036 0.9345238095238095 0  1.753952463834889 0.8472973587166729 0  2 0.9375 0  1.9375 1 0  0.7022683878270706 0.770204395751818 0  0 0.9375 0  0.0625 1 0  1.139607537040982 0.4720641816945025 0  1.224499120027803 0.2144711882194641 0  0.7863124194829649 0.699238164101231 0  0.4285125855365842 0.8269720812914013 0  0.5834046093203372 0.6951525685470986 0  1.003603681286273 0.06606493071244557 0  1.126304287524467 0.08512142223151367 0  0.7085525522902785 0.5999823290361459 0  1.92891531307153 0.5024854990855518 0  1.864281148433066 0.510397690476507 0  1.7918725
[...]
<PointData  Scalars="f_30"> 
<DataArray  type="Float64"  Name="f_30"  format="ascii">0.0000000000000000e+00  0.0000000000000000e+00  0.0000000000000000e+00  0.0000000000000000e+00  0.0000000000000000e+00  0.0000000000000000e+00  0.0000000000000000e+00  0.0000000000000000e+00  0.0000000000000000e+00  0.0000000000000000e+00  0.0000000000000000e+00  0.0000000000000000e+00  0.0000000000000000e+00  0.0000000000000000e+00  0.0000000000000000e+00  0.0000000000000000e+00  0.0000000000000000e+00  0.0000000000000000e+00  0.0000000000000000e+00  0.0000000000000000e+00  0.0000000000000000e+00  0.0000000000000000e+00  0.0000000000000000e+00  0.0000000000000000e+00  0.0000000000000000e+00  0.0000000000000000e+00  0.0000000000000000e+00  0.0000000000000000e+00  0.0000000000000000e+00  0.0000000000000000e+00  0.0000000000000000e+00  7.5305108503668949e-01  0.0000000000000000e+00  0.0000000000000000e+00  0.0000000000000000e+00  0.0000000000000000e+00  0.0000000000000000e+00  -1.9757497465168061e-01  -3.0595552229457357e-01  1.7489963201124858e-01  1.1286093714164067e-01  4.9852876599018819e-01  5.5104190166463118e-01  0.0000000000000000e+00  0.0000000000000000e+00  0.0000000000000000e+00  0.0000000000000000e+00  0.0000000000000000e+00  0.0000000000000000e+00  0.0000000000000000e+00  2.5450123261501978e-01  -4.6487971964936703e-01  -5.0208477086597703e-01  4.1483631131651433e-01  -7.2998590165964083e-01  1.9005570429496629e-02  -1.5067098755087036e-01  2.8596290427891358e-02  1.8630986259400151e-01  1.2523655660327567e-02  2.5894002578723457e-02  2.7339570679087870e-02  6.0139178194442389e-01  -2.2265546461719352e-01  2.2708107297351807e-01  6.0129764796991125e-01  3.4622494441953516e-01  9.7364570354210520e-02  -2.2858737643370128e-01  -6.7621556695812557e-01  -2.4882298728539762e-01  5.5779298516848819e-01  4.0659977668624451e-03  0.0000000000000000e+00  -1.7900224533913126e-01  4.5399064150764903e-03  -6.3732635517073299e-01  0.0000000000000000e+00  0.0000000000000000e+00  3.3338320254257620e-01  5.7530681556584522e-02  4.6708774778340062e-03  0.0000000000000000e+00  0.0000000000000000e+00  1.2569879943269302e-01  8.1970807889251027e-02  6.9994693874664049e-01  0.0000000000000000e+00  0.0000000000000000e+00  0.0000000000000000e+00  0.0000000000000000e+00  2.8053659031082767e-01  1.6310493001577386e-01  -6.0900182266734626e-01  2.2815812874310645e-01  0.0000000000000000e+00  0.0000000000000000e+00  0.0000000000000000e+00  0.0000000000000000e+00  0.0000000000000000e+00  0.0000000000000000e+00  0.0000000000000000e+00  0.0000000000000000e+00  0.0000000000000000e+00  0.0000000000000000e+00  0.0000000000000000e+00  0.0000000000000000e+00  0.0000000000000000e+00  0.0000000000000000e+00  0.0000000000000000e+00  -2.4591979015830387e-01  3.2485040845185620e-01  1.6742928438911665e-02  2.3048477403988379e-02  -3.9592192433488588e-01  2.7528784321070132e-01  4.0627871512348157e-01  3.9744542004320989e-02  4.3202899862313258e-02  -4.3852691411626021e-01  3.0114017129940440e-01  7.8337215080935663e-02  1.8626273489789122e-01  2.1974714158901482e-01  -5.3164027876730435e-01  -2.2985393521247161e-01  -4.6178799618925775e-01  2.1704921939270369e-01  2.0800236916649240e-01  -4.6004669967236145e-01  -6.6021511618963546e-01  -1.2290584578706784e-02  5.4714945754237826e-02  5.5664818153882412e-01  6.9408184465567124e-01  7.0874708517573215e-01  -6.4201565707816488e-01  6.3746157364137556e-03  -5.7424537196682701e-01  3.0496615614300376e-01  -1.9411246368403257e-01  -5.6973569394139917e-02  9.5581105947428850e-03  1.5671981765776599e-01  4.6509893766229027e-01  1.4843409708305391e-04  1.4551574960326918e-03  1.2168569024033174e-01  -4.6285196605941915e-02  7.1225579608803638e-03  4.7164775569501841e-03  2.4336403065437429e-02  1.0920039571940508e-01  7.1201462788476333e-02  2.0519622774460522e-01  4.7567602498727733e-02  4.4839962899133190e-01  -4.7922675105410967e-01  -2.3305407341261664e-01  -3.4154276313394925e-02  -3.7514873923639541e-01  -2.3444623568808559e-03  6.7510522430610079e-02  -1.5572620896356982e-03  -1.7053821568736463e-03  7.6078138804734449e-02  6.5621356288938430e-04  1.8956836584559927e-01  1.0391630900593007e-01  -3.8052922040526921e-01  2.1732859802055293e-01  7.9722479419654692e-03  -2.4116641325283972e-01  3.2506613693705316e-01  3.8522105543596008e-01  -3.6258443365674980e-01  -1.1913981023821388e-01  -2.4109614596744383e-01  -8.9010365596288138e-02  5.0007086160256853e-01  0.0000000000000000e+00  7.5326546855359200e-01  6.4031359584574021e-01  7.1707295643747793e-01  -5.1249040003927715e-02  -1.5608554387569673e-01  -7.5851668952317430e-02  -3.7955166436560822e-01  5.0753708216445530e-02  1.1054767782252771e-02  -3.2874121754055935e-01  -7.5083530560552092e-01  1.5258622286419113e-01  5.9199089793872339e-01  2.7463642756733719e-01  8.4051918487724309e-02  -3.0371214037944150e-01  1.9609494784038409e-03  8.1467685571414241e-04  6.5819075720359013e-02  3.0961850634342425e-01  8.2165409080967672e-02  6.0306860141653051e-01  3.6152878858951193e-01  7.1391203509912338e-01  1.3696980142244616e-01  -6.0200976004533580e-01  -3.0825344416187206e-01  1.4725105957028234e-01  4.7016762730440247e-02  -6.1895785542444529e-02  3.4722802879426471e-03  5.0856795406822952e-01  -5.4924207158974803e-01  -7.6251216196423854e-01  -5.8942815484426259e-01  0.0000000000000000e+00  -2.1090405319993213e-01  -2.1998987573640719e-01  -5.4152377569368482e-01  -3.1866593461372450e-01  9.1826651082160260e-02  2.8542566126829047e-03  3.2290803838062828e-03  1.0732982125885363e-02  -7.8166382725693789e-02  3.4975944093850048e-01  3.4593789134929648e-01  6.8326282441358827e-02  1.4535629802787070e-01  5.1768709708472771e-01  -1.7900343883784208e-02  -6.7135647637367502e-01  -2.2997590884416677e-01  0.0000000000000000e+00  3.1899520401304499e-01  -9.6325379243046190e-03  -1.1676961326528327e-03  -4.7200396249389043e-01  -5.7283912658048941e-01  1.7145944038751440e-01  -6.3309471100322745e-01  -5.6327800776253198e-03  -5.1813865372278993e-02  3.3188243668804095e-02  -2.7402385523935761e-04  5.5075661894798900e-01  -1.7645828411528486e-01  -6.7295164699866045e-02  -7.6494411933710857e-02  3.7684899518649717e-01  1.7797197319221089e-01  0.0000000000000000e+00  4.8476492157923956e-01  -3.6185570183600291e-01  2.4428446936824416e-01  1.4978720185394637e-01  0.0000000000000000e+00  -7.1424250475319612e-02  0.0000000000000000e+00  -3.2632412385712317e-01  -3.5966553154210323e-01  4.8260975304988252e-01  1.3142255857883989e-01  0.0000000000000000e+00  9.8264994380466403e-02  1.5460700947357373e-01  0.0000000000000000e+00  1.5061536155610808e-01  0.0000000000000000e+00  6.5126178854985242e-02  7.0628833378081554e-02  1.2784293310052752e-01  5.0476624026750661e-01  0.0000000000000000e+00  -2.3311390038977607e-02  0.0000000000000000e+00  0.0000000000000000e+00  2.2334494423584603e-01  3.9706585885931636e-02  -3.4664998276690361e-02  1.2724998692855805e-01  0.0000000000000000e+00  0.0000000000000000e+00  1.0887581538881098e-01  -9.5927554853708769e-03  0.0000000000000000e+00  0.0000000000000000e+00  2.7481280213778020e-01  0.0000000000000000e+00  0.0000000000000000e+00  -6.9709892042960209e-01  -2.1852303108488214e-01  2.9998507503851333e-02  3.1721878680097998e-01  6.1104137875572240e-01  -1.5030740654625033e-01  -1.7836254075711383e-01  3.7814239916258630e-01  -1.5324723431755466e-01  6.9669019953920493e-03  0.0000000000000000e+00  0.0000000000000000e+00  5.1899477851068951e-02  6.2120648687792202e-01  1.3128779221506129e-01  7.5817238764489325e-01  -4.2583528546709426e-01  0.0000000000000000e+00  2.0345653873731112e-01  0.0000000000000000e+00  2.4573358803576575e-01  1.0571750277339181e-02  1.6730251699718629e-01  -6.8767559493511088e-01  -6.7343301817701651e-01  -6.3748025227754090e-01  1.1409743424649964e-02  0.0000000000000000e+00  2.9250476370799760e-02  0.0000000000000000e+00  0.0000000000000000e+00  0.0000000000000000e+00  0.0000000000000000e+00  0.0000000000000000e+00  0.0000000000000000e+00  0.0000000000000000e+00  0.0000000000000000e+00  0.0000000000000000e+00  0.0000000000000000e+00  0.0000000000000000e+00  0.0000000000000000e+00  0.0000000000000000e+00  0.0000000000000000e+00  0.0000000000000000e+00  0.0000000000000000e+00  0.0000000000000000e+00  0.0000000000000000e+00  0.0000000000000000e+00  0.0000000000000000e+00  0.0000000000000000e+00  0.0000000000000000e+00  0.0000000000000000e+00  0.0000000000000000e+00  0.0000000000000000e+00  0.0000000000000000e+00  0.0000000000000000e+00  0.0000000000000000e+00  -4.0230946367581788e-01  1.1032453660418805e-01  0.0000000000000000e+00  3.5591232941072505e-02  4.0686197446508865e-01  -8.7748250067076219e-02  -1.4963424019802848e-01  0.0000000000000000e+00  1.9885323582864484e-01  2.2445649512404139e-01  3.6686376580757928e-02  4.3468587349918536e-01  2.3833910340593895e-01  6.5826075456651800e-01  6.3674580770863617e-02  4.8442813332894930e-01  4.9620807033879710e-01  3.4411190865298466e-02  1.5539625610653712e-01  2.9226996152025586e-01  0.0000000000000000e+00  -2.6206550727219174e-01  -3.5677293013277511e-01  2.6539055269148004e-01  8.9008602463671524e-02  -7.3980517560212400e-01  -7.1946839022621265e-02  6.9149838264087893e-01  -4.9083907847818870e-01  -6.5618552215750814e-01  -5.4560987794674565e-01  2.9271509321668540e-02  -4.5617311253374371e-01  -1.2230508578593088e-01  1.8564634549598388e-01  1.5667121521248553e-01  -2.3416283163385082e-01  -6.1901657587751971e-02  -6.2629109127045363e-02  2.4763614255632699e-01  -7.9304603447678354e-02  -7.4747518465226023e-02  -3.4686370698395108e-01  1.5487115548021973e-02  1.1097640264311677e-01  -4.9850216506522721e-01  -3.1117968225363357e-01  -3.5879882417383675e-03  2.1494106843984433e-02  2.9066051377441799e-02  -3.2830511477558622e-01  -4.2917308992325315e-01  -4.7879713145313846e-01  1.2406489202284408e-01  1.3102958580932614e-01  2.4712299029838311e-01  4.0683968305591245e-01  1.6862344689882938e-01  -4.9408114391983499e-01  -1.5692759757449744e-03  0.0000000000000000e+00  -8.7655067041752230e-02  -3.4263342578109323e-04  6.2907440505659673e-01  -2.3922585216296827e-01  -1.9032711390636636e-01  4.7903106632168296e-01  -1.8746771897574643e-01  8.1359766477056474e-03  6.6721959103351791e-01  -2.1036935218689688e-02  -9.9806482529970528e-02  -7.7231269102748479e-01  3.8007080348613215e-01  1.9493911795950997e-01  -2.7694454010089276e-01  6.5281542006486659e-01  6.5712246274000541e-01  -1.4524980410308416e-01  4.4107762346405101e-02  1.6399378959802532e-02  1.9172804052360508e-03  -3.1332828240602358e-02  0.0000000000000000e+00  -1.2636817951265130e-03  1.5498731604443396e-02  2.6729551020826969e-01  -1.8693505218968126e-01  2.0360168048032193e-01  -2.2605001635056056e-02  1.0197237544139291e-01  7.6315326664739869e-01  8.1256961963095661e-02  -1.1131325646676213e-01  3.8735059966240037e-01  -4.2979338856474147e-02  5.5671012017094301e-01  0.0000000000000000e+00  -1.0611667707155910e-05  -5.6171596737223917e-01  -5.1309288909278279e-03  -1.2419269778726887e-01  8.9178380730489448e-02  -2.3265491882575987e-02  -3.7342800320207675e-02  1.1330921527786894e-01  -5.1736960033694923e-01  8.6103651015375135e-02  -4.0890487756864802e-01  -7.8950060659478449e-01  -3.0392093907388645e-01  2.5074405284875595e-01  4.3493612772865908e-01  3.5597354917613305e-01  5.8604242552850150e-01  -1.8928926784197928e-01  7.2436541299458340e-02  -4.4306528968874681e-01  -6.8292772323603679e-01  -6.7071183764303555e-01  4.6738656532604111e-04  8.1232494229352610e-04  1.4169853785611811e-01  7.5519548238973389e-03  7.6409436191880134e-02  5.7180017577935852e-02  -1.6825942061794780e-01  -1.0465383458619995e-01  2.2192200708859244e-02  -2.4096450708144571e-01  1.3096517334831281e-01  4.8385714775478978e-03  3.3410403905777056e-03  4.0454650338161124e-01  3.6302745409450266e-01  1.4063382074646907e-01  </DataArray> 
</PointData> 
</Piece>
</UnstructuredGrid>
</VTKFile>