<?xml version="1.0"?>
<VTKFile type="UnstructuredGrid"  version="0.1"  >
<UnstructuredGrid>
<Piece  NumberOfPoints="441" NumberOfCells="800">
<Points>
<DataArray  type="Float64"  NumberOfComponents="3"  format="ascii">0 0 0  0.05 0 0  0.1 0 0  0.15 0 0  0.2 0 0  0.25 0 0  0.3 0 0  0.35 0 0  0.4 0 0  0.45 0 0  0.5 0 0  0.55 0 0  0.6 0 0  0.65 0 0  0.7 0 0  0.75 0 0  0.8 0 0  0.85 0 0  0.9 0 0  0.95 0 0  1 0 0  0 0.05 0  0.05 0.05 0  0.1 0.05 0  0.15 0.05 0  0.2 0.05 0  0.25 0.05 0  0.3 0.05 0  0.35 0.05 0  0.4 0.05 0  0.45 0.05 0  0.5 0.05 0  0.55 0.05 0  0.6 0.05 0  0.65 0.05 0  0.7 0.05 0  0.75 0.05 0  0.8 0.05 0  0.85 0.05 0  0.9 0.05 0  0.95 0.05 0  1 0.05 0  0 0.1 0  0.05 0.1 0  0.1 0.1 0  0.15 0.1 0  0.2 0.1 0  0.25 0.1 0  0.3 0.1 0  0.35 0.1 0  0.4 0.1 0  0.45 0.1 0  0.5 0.1 0  0.55 0.1 0  0.6 0.1 0  0.65 0.1 0  0.7 0.1 0  0.75 0.1 0  0.8 0.1 0  0.85 0.1 0  0.9 0.1 0  0.95 0.1 0  1 0.1 0  0 0.15 0  0.05 0.15 0  0.1 0.15 0  0.15 0.15 0  0.2 0.15 0  0.25 0.15 0  0.3 0.15 0  0.35 0.15 0  0.4 0.15 0  0.45 0.15 0  0.5 0.15 0  0.55 0.15 0  0.6 0.15 0  0.65 0.15 0  0.7 0.15 0  0.75 0.15 0  0.8 0.15 0  0.85 0.15 0  0.9 0.15 0  0.95 0.15 0  1 0.15 0  0 0.2 0  0.05 0.2 0  0.1 0.2 0  0.15 0.2 0  0.2 0.2 0  0.25 0.2 0  0.3 0.2 0  0.35 0.2 0  0.4 0.2 0  0.45 0.2 0  0.5 0.2 0  0.55 0.2 0  0.6 0.2 0  0.65 0.2 0  0.7 0.2 0  0.75 0.2 0  0.8 0.2 0  0.85 0.2 0  0.9 0.2 0  0.95 0.2 0  1 0.2 0  0 0.25 0  0.05 0.25 0  0.1 0.25 0  0.15 0.25 0  0.2 0.25 0  0.25 0.25 0  0.3 0.25 0  0.35 0.25 0  0.4 0.25 0  0.45 0.25 0  0.5 0.25 0  0.55 0.25 0  0.6 0.25 0  0.65 0.25 0  0.7 0.25 0  0.75 0.25 0  0.8 0.25 0  0.85 0.25 0  0.9 0.25 0  0.95 0.25 0  1 0.25 0  0 0.3 0  0.05 0.3 0  0.1 0.3 0  0.15 0.3 0  0.2 0.3 0  0.25 0.3 0  0.3 0.3 0  0.35 0.3 0  0.4 0.3 0  0.45 0.3 0  0.5 0.3 0  0.55 0.3 0  0.6 0.3 0  0.65 0.3 0  0.7 0.3 0  0.75 0.3 0  0.8 0.3 0  0.85 0.3 0  0.9 0.3 0  0.95 0.3 0  1 0.3 0  0 0.35 0  0.05 0.35 0  0.1 0.35 0  0.15 0.35 0  0.2 0.35 0  0.25 0.35 0  0.3 0.35 0  0.35 0.35 0  0.4 0.35 0  0.45 0.35 0  0.5 0.35 0  0.55 0.35 0  0.6 0.35 0  0.65 0.35 0  0.7 0.35 0  0.75 0.35 0  0.8 0.35 0  0.85 0.35 0  0.9 0.35 0  0.95 0.35 0  1 0.35 0  0 0.4 0  0.05 0.4 0  0.1 0.4 0  0.15 0.4 0  0.2 0.4 0  0.25 0.4 0  0.3 0.4 0  0.35 0.4 0  0.4 0.4 0  0.45 0.4 0  0.5 0.4 0  0.55 0.4 0  0.6 0.4 0  0.65 0.4 0  0.7 0.4 0  0.75 0.4 0  0.8 0.4 0  0.85 0.4 0  0.9 0.4 0  0.95 0.4 0  1 0.4 0  0 0.45 0  0.05 0.45 0  0.1 0.45 0  0.15 0.45 0  0.2 0.45 0  0.25 0.45 0  0.3 0.45 0  0.35 0.45 0  0.4 0.45 0  0.45 0.45 0  0.5 0.45 0  0.55 0.45 0  0.6 0.45 0  0.65 0.45 0  0.7 0.45 0  0.75 0.45 0  0.8 0.45 0  0.85 0.45 0  0.9 0.45 0  0.95 0.45 0  1 0.45 0  0 0.5 0  0.05 0.5 0  0.1 0.5 0  0.15 0.5 0  0.2 0.5 0  0.25 0.5 0  0.3 0.5 0  0.35 0.5 0  0.4 0.5 0  0.45 0.5 0  0.5 0.5 0  0.55 0.5 0  0.6 0.5 0  0.65 0.5 0  0.7 0.5 0  0.75 0.5 0  0.8 0.5 0  0.85 0.5 0  0.9 0.5 0  0.95 0.5 0  1 0.5 0  0 0.55 0  0.05 0.55 0  0.1 0.55 0  0.15 0.55 0  0.2 0.55 0  0.25 0.55 0  0.3 0.55 0  0.35 0.55 0  0.4 0.55 0  0.45 0.55 0  0.5 0.55 0  0.55 0.55 0  0.6 0.55 0  0.65 0.55 0  0.7 0.55 0  0.75 0.55 0  0.8 0.55 0  0.85 0.55 0  0.9 0.55 0  0.95 0.55 0  1 0.55 0  0 0.6 0  0.05 0.6 0  0.1 0.6 0  0.15 0.6 0  0.2 0.6 0  0.25 0.6 0  0.3 0.6 0  0.35 0.6 0  0.4 0.6 0  0.45 0.6 0  0.5 0.6 0  0.55 0.6 0  0.6 0.6 0  0.65 0.6 0  0.7 0.6 0  0.75 0.6 0  0.8 0.6 0  0.85 0.6 0  0.9 0.6 0  0.95 0.6 0  1 0.6 0  0 0.65 0  0.05 0.65 0  0.1 0.65 0  0.15 0.65 0  0.2 0.65 0  0.25 0.65 0  0.3 0.65 0  0.35 0.65 0  0.4 0.65 0  0.45 0.65 0  0.5 0.65 0  0.55 0.65 0  0.6 0.65 0  0.65 0.65 0  0.7 0.65 0  0.75 0.65 0  0.8 0.65 0  0.85 0.65 0  0.9 0.65 0  0.95 0.65 0  1 0.65 0  0 0.7 0  0.05 0.7 0  0.1 0.7 0  0.15 0.7 0  0.2 0.7 0  0.25 0.7 0  0.3 0.7 0  0.35 0.7 0  0.4 0.7 0  0.45 0.7 0  0.5 0.7 0  0.55 0.7 0  0.6 0.7 0  0.65 0.7 0  0.7 0.7 0  0.75 0.7 0  0.8 0.7 0  0.85 0.7 0  0.9 0.7 0  0.95 0.7 0  1 0.7 0  0 0.75 0  0.05 0.75 0  0.1 0.75 0  0.15 0.75 0  0.2 0.75 0  0.25 0.75 0  0.3 0.75 0  0.35 0.75 0  0.4 0.75 0  0.45 0.75 0  0.5 0.75 0  0.55 0.75 0  0.6 0.75 0  0.65 0.75 0  0.7 0.75 0  0.75 0.75 0  0.8 0.75 0  0.85 0.75 0  0.9 0.75 0  0.95 0.75 0  1 0.75 0  0 0.8 0  0.05 0.8 0  0.1 0.8 0  0.15 0.8 0  0.2 0.8 0  0.25 0.8 0  0.3 0.8 0  0.35 0.8 0  0.4 0.8 0  0.45 0.8 0  0.5 0.8 0  0.55 0.8 0  0.6 0.8 0  0.65 0.8 0  0.7 0.8 0  0.75 0.8 0  0.8 0.8 0  0.85 0.8 0  0.9 0.8 0  0.95 0.8 0  1 0.8 0  0 0.85 0  0.05 0.85 0  0.1 0.85 0  0.15 0.85 0  0.2 0.85 0  0.25 0.85 0  0.3 0.85 0  0.35 0.85 0  0.4 0.85 0  0.45 0.85 0  0.5 0.85 0  0.55 0.85 0  0.6 0.85 0  0.65 0.85 0  0.7 0.85 0  0.75 0.85 0  0.8 0.85 0  0.85 0.85 0  0.9 0.85 0  0.95 0.85 0  1 0.85 0  0 0.9 0  0.05 0.9 0  0.1 0.9 0  0.15 0.9 0  0.2 0.9 0  0.25 0.9 0  0.3 0.9 0  0.35 0.9 0  0.4 0.9 0  0.45 0.9 0  0.5 0.9 0  0.55 0.9 0  0.6 0.9 0  0.65 0.9 0  0.7 0.9 0  0.75 0.9 0  0.8 0.9 0  0.85 0.9 0  0.9 0.9 0  0.95 0.9 0  1 0.9 0  0 0.95 0  0.05 0.95 0  0.1 0.95 0  0.15 0.95 0  0.2 0.95 0  0.25 0.95 0  0.3 0.95 0  0.35 0.95 0  0.4 0.95 0  0.45 0.95 0  0.5 0.95 0  0.55 0.95 0  0.6 0.95 0  0.65 0.95 0  0.7 0.95 0  0.75 0.95 0  0.8 0.95 0  0.85 0.95 0  0.9 0.95 0  0.95 0.95 0  1 0.95 0  0 1 0  0.05 1 0  0.1 1 0  0.15 1 0  0.2 1 0  0.25 1 0  0.3 1 0  0.35 1 0  0.4 1 0  0.45 1 0  0.5 1 0  0.55 1 0  0.6 1 0  0.65 1 0  0.7 1 0  0.75 1 0  0.8 1 0  0.85 1 0  0.9 1 0  0.95 1 0  1 1 0  </DataArray>
</Points>
<Cells>
[...]
<PointData  Scalars="f_25"> 
<DataArray  type="Float64"  Name="f_25"  format="ascii">0.0000000000000000e+00  0.0000000000000000e+00  0.0000000000000000e+00  0.0000000000000000e+00  0.0000000000000000e+00  0.0000000000000000e+00  0.0000000000000000e+00  0.0000000000000000e+00  0.0000000000000000e+00  0.0000000000000000e+00  0.0000000000000000e+00  0.0000000000000000e+00  0.0000000000000000e+00  0.0000000000000000e+00  0.0000000000000000e+00  0.0000000000000000e+00  0.0000000000000000e+00  0.0000000000000000e+00  0.0000000000000000e+00  0.0000000000000000e+00  0.0000000000000000e+00  0.0000000000000000e+00  9.6991739780596286e-05  2.4938543832553177e-04  4.6567121551717574e-04  7.5236704101019089e-04  1.1124536841459359e-03  1.5443306581089072e-03  2.0412504877833342e-03  2.5912399934975702e-03  3.1774635175990775e-03  3.7788971298216862e-03  4.3710817280379890e-03  4.9265962259888363e-03  5.4147048345300373e-03  5.7993190803560940e-03  6.0338602264579091e-03  6.0505933378239779e-03  5.7400533280584642e-03  4.9120572848194615e-03  3.2197759776538626e-03  0.0000000000000000e+00  0.0000000000000000e+00  2.4938543832553171e-04  6.3313463896674110e-04  1.1742211863835768e-03  1.8893439702225465e-03  2.7860520184793676e-03  3.8604374178526561e-03  5.0958080030208720e-03  6.4624958679645765e-03  7.9187270096747423e-03  9.4122349933860924e-03  1.0882036773604409e-02  1.2259463219651281e-02  1.3467063243733694e-02  1.4413224851964878e-02  1.4979028197065050e-02  1.4991553518479424e-02  1.4173905759319478e-02  1.2055348145382153e-02  7.8131800364740715e-03  0.0000000000000000e+00  0.0000000000000000e+00  4.6567121551717601e-04  1.1742211863835770e-03  2.1682058055898404e-03  3.4784984749840833e-03  5.1191268984479288e-03  7.0831807428318339e-03  9.3404303241158664e-03  1.1836953961280487e-02  1.4496654717832217e-02  1.7224093900226091e-02  1.9907572904834719e-02  2.2420789520374722e-02  2.4620528774734508e-02  2.6336466360599952e-02  2.7346877999191777e-02  2.7330306701569208e-02  2.5777289199999307e-02  2.1837202928107601e-02  1.4062695624397272e-02  0.0000000000000000e+00  0.0000000000000000e+00  7.5236704101019132e-04  1.8893439702225472e-03  3.4784984749840851e-03  5.5690753510442047e-03  8.1836786461360715e-03  1.1311736038471942e-02  1.4905668382605130e-02  1.8880207966993294e-02  2.3114673855883842e-02  2.7457294754403401e-02  3.1729873423864748e-02  3.5730115953074224e-02  3.9227582276024901e-02  4.1947084210304748e-02  4.3529939333760918e-02  4.3458104244777696e-02  4.0918086899673009e-02  3.4570045852723649e-02  2.2172801287405858e-02  0.0000000000000000e+00  0.0000000000000000e+00  1.1124536841459367e-03  2.7860520184793671e-03  5.1191268984479314e-03  8.1836786461360750e-03  1.2013140551800201e-02  1.6592735837013799e-02  2.1853752103830535e-02  2.7672367697424757e-02  3.3872750299665272e-02  4.0233101161198270e-02  4.6492147117407942e-02  5.2352158537408343e-02  5.7472594099106905e-02  6.1445453650604019e-02  6.3738685167348957e-02  6.3586724936161881e-02  5.9796619745079355e-02  5.0423652910145236e-02  3.2252389781958504e-02  0.0000000000000000e+00  0.0000000000000000e+00  1.5443306581089074e-03  3.8604374178526561e-03  7.0831807428318339e-03  1.1311736038471945e-02  1.6592735837013803e-02  2.2906885961425216e-02  3.0160887159532697e-02  3.8185545522621600e-02  4.6739702193673995e-02  5.5518169513709831e-02  6.4160238681455276e-02  7.2253358704258724e-02  7.9323891321272766e-02  8.4802798835098669e-02  8.7947883594972090e-02  8.7694791831745805e-02  8.2395482112684146e-02  6.9384712200305551e-02  4.4292882469182268e-02  0.0000000000000000e+00  0.0000000000000000e+00  2.0412504877833351e-03  5.0958080030208746e-03  9.3404303241158681e-03  1.4905668382605130e-02  2.1853752103830542e-02  3.0160887159532697e-02  3.9706380958781554e-02  5.0269784621551808e-02  6.1535598826470188e-02  7.3103190752213540e-02  8.4497425157183323e-02  9.5172923171103666e-02  1.0450134935347033e-01  1.1172592395392135e-01  1.1585944483640918e-01  1.1549032025188735e-01  1.0844438164788964e-01  9.1228010164451284e-02  5.8151113812064864e-02  0.0000000000000000e+00  0.0000000000000000e+00  2.5912399934975711e-03  6.4624958679645799e-03  1.1836953961280493e-02  1.8880207966993301e-02  2.7672367697424764e-02  3.8185545522621600e-02  5.0269784621551822e-02  6.3648964799417604e-02  7.7926164036604156e-02  9.2595547936996356e-02  1.0705513297980901e-01  1.2061148467550036e-01  1.3246299573399389e-01  1.4164192410135346e-01  1.4688564641584137e-01  1.4639323776230975e-01  1.3740329170026824e-01  1.1550226530196453e-01  7.3540555151930517e-02  0.0000000000000000e+00  0.0000000000000000e+00  3.1774635175990796e-03  7.9187270096747510e-03  1.4496654717832236e-02  2.3114673855883859e-02  3.3872750299665279e-02  4.6739702193674015e-02  6.1535598826470202e-02  7.7926164036604184e-02  9.5428609886519258e-02  1.1342538386580459e-01  1.3117896158662817e-01  1.4783678420317722e-01  1.6241005943528283e-01  1.7370234692270980e-01  1.8015222850835250e-01  1.7953735855202732e-01  1.6846341578595866e-01  1.4153035370167624e-01  9.0031160777647695e-02  0.0000000000000000e+00  0.0000000000000000e+00  3.7788971298216914e-03  9.4122349933861010e-03  1.7224093900226112e-02  2.7457294754403418e-02  4.0233101161198291e-02  5.5518169513709845e-02  7.3103190752213540e-02  9.2595547936996384e-02  1.1342538386580460e-01  1.3486098283391831e-01  1.5602537332950900e-01  1.7590125037908577e-01  1.9330494269224477e-01  2.0680099469092528e-01  2.1451540650581047e-01  2.1378592291066117e-01  2.0056047313149675e-01  1.6841939199745981e-01  1.0705506321468883e-01  0.0000000000000000e+00  0.0000000000000000e+00  4.3710817280379942e-03  1.0882036773604423e-02  1.9907572904834740e-02  3.1729873423864761e-02  4.6492147117407949e-02  6.4160238681455262e-02  8.4497425157183295e-02  1.0705513297980895e-01  1.3117896158662812e-01  1.5602537332950892e-01  1.8057977164043751e-01  2.0366111012625399e-01  2.2389082109770087e-01  2.3959337637136871e-01  2.4858044112561670e-01  2.4774844137676763e-01  2.3238884156281450e-01  1.9507107624332129e-01  1.2391201637233969e-01  0.0000000000000000e+00  0.0000000000000000e+00  4.9265962259888397e-03  1.2259463219651285e-02  2.2420789520374740e-02  3.5730115953074217e-02  5.2352158537408308e-02  7.2253358704258683e-02  9.5172923171103610e-02  1.2061148467550026e-01  1.4783678420317697e-01  1.7590125037908569e-01  2.0366111012625396e-01  2.2978035666853369e-01  2.5269462979467400e-01  2.7049837797165349e-01  2.8070169222144326e-01  2.7977891368425428e-01  2.6239792007998791e-01  2.2017665187802221e-01  1.3976463282164647e-01  0.0000000000000000e+00  0.0000000000000000e+00  5.4147048345300399e-03  1.3467063243733701e-02  2.4620528774734536e-02  3.9227582276024901e-02  5.7472594099106891e-02  7.9323891321272752e-02  1.0450134935347027e-01  1.3246299573399373e-01  1.6241005943528261e-01  1.9330494269224463e-01  2.2389082109770078e-01  2.5269462979467400e-01  2.7798613148294110e-01  2.9765306994932522e-01  3.0893414747566844e-01  3.0792570177489903e-01  2.8874302637177318e-01  2.4217342652704998e-01  1.5360879650915882e-01  0.0000000000000000e+00  0.0000000000000000e+00  5.7993190803560966e-03  1.4413224851964885e-02  2.6336466360599962e-02  4.1947084210304734e-02  6.1445453650603943e-02  8.4802798835098600e-02  1.1172592395392128e-01  1.4164192410135337e-01  1.7370234692270980e-01  2.0680099469092522e-01  2.3959337637136863e-01  2.7049837797165355e-01  2.9765306994932533e-01  3.1877818959321802e-01  3.3089281002132931e-01  3.2979014637638038e-01  3.0915123469377187e-01  2.5913022218736992e-01  1.6419892342394046e-01  0.0000000000000000e+00  0.0000000000000000e+00  6.0338602264579126e-03  1.4979028197065061e-02  2.7346877999191801e-02  4.3529939333760918e-02  6.3738685167348944e-02  8.7947883594972021e-02  1.1585944483640911e-01  1.4688564641584137e-01  1.8015222850835255e-01  2.1451540650581050e-01  2.4858044112561664e-01  2.8070169222144337e-01  3.0893414747566850e-01  3.3089281002132942e-01  3.4345729748195375e-01  3.4223301391407990e-01  3.2064691167717013e-01  2.6851739693689042e-01  1.6990131185333782e-01  0.0000000000000000e+00  0.0000000000000000e+00  6.0505933378239788e-03  1.4991553518479427e-02  2.7330306701569208e-02  4.3458104244777668e-02  6.3586724936161840e-02  8.7694791831745736e-02  1.1549032025188730e-01  1.4639323776230967e-01  1.7953735855202749e-01  2.1378592291066123e-01  2.4774844137676763e-01  2.7977891368425439e-01  3.0792570177489914e-01  3.2979014637638071e-01  3.4223301391408018e-01  3.4084417755683816e-01  3.1906250170503492e-01  2.6680451994318793e-01  1.6844386795162311e-01  0.0000000000000000e+00  0.0000000000000000e+00  5.7400533280584642e-03  1.4173905759319474e-02  2.5777289199999286e-02  4.0918086899672974e-02  5.9796619745079292e-02  8.2395482112684049e-02  1.0844438164788961e-01  1.3740329170026819e-01  1.6846341578595864e-01  2.0056047313149672e-01  2.3238884156281450e-01  2.6239792007998786e-01  2.8874302637177318e-01  3.0915123469377198e-01  3.2064691167717030e-01  3.1906250170503503e-01  2.9824043970523917e-01  2.4882141406151131e-01  1.5653456140212346e-01  0.0000000000000000e+00  0.0000000000000000e+00  4.9120572848194597e-03  1.2055348145382146e-02  2.1837202928107584e-02  3.4570045852723608e-02  5.0423652910145174e-02  6.9384712200305496e-02  9.1228010164451215e-02  1.1550226530196446e-01  1.4153035370167621e-01  1.6841939199745978e-01  1.9507107624332132e-01  2.2017665187802216e-01  2.4217342652704998e-01  2.5913022218736997e-01  2.6851739693689058e-01  2.6680451994318810e-01  2.4882141406151137e-01  2.0683290820040609e-01  1.2935671782065147e-01  0.0000000000000000e+00  0.0000000000000000e+00  3.2197759776538613e-03  7.8131800364740663e-03  1.4062695624397265e-02  2.2172801287405841e-02  3.2252389781958470e-02  4.4292882469182226e-02  5.8151113812064802e-02  7.3540555151930462e-02  9.0031160777647667e-02  1.0705506321468883e-01  1.2391201637233965e-01  1.3976463282164636e-01  1.5360879650915885e-01  1.6419892342394049e-01  1.6990131185333793e-01  1.6844386795162322e-01  1.5653456140212346e-01  1.2935671782065147e-01  8.0084010778489409e-02  0.0000000000000000e+00  0.0000000000000000e+00  0.0000000000000000e+00  0.0000000000000000e+00  0.0000000000000000e+00  0.0000000000000000e+00  0.0000000000000000e+00  0.0000000000000000e+00  0.0000000000000000e+00  0.0000000000000000e+00  0.0000000000000000e+00  0.0000000000000000e+00  0.0000000000000000e+00  0.0000000000000000e+00  0.0000000000000000e+00  0.0000000000000000e+00  0.0000000000000000e+00  0.0000000000000000e+00  0.0000000000000000e+00  0.0000000000000000e+00  0.0000000000000000e+00  0.0000000000000000e+00  </DataArray> 
</PointData> 
</Piece>
</UnstructuredGrid>
</VTKFile>