<?xml version="1.0"?>
<VTKFile type="UnstructuredGrid"  version="0.1"  >
<UnstructuredGrid>
<Piece  NumberOfPoints="441" NumberOfCells="800">
<Points>
<DataArray  type="Float64"  NumberOfComponents="3"  format="ascii">0 0 0  0.05 0 0  0.1 0 0  0.15 0 0  0.2 0 0  0.25 0 0  0.3 0 0  0.35 0 0  0.4 0 0  0.45 0 0  0.5 0 0  0.55 0 0  0.6 0 0  0.65 0 0  0.7 0 0  0.75 0 0  0.8 0 0  0.85 0 0  0.9 0 0  0.95 0 0  1 0 0  0 0.05 0  0.05 0.05 0  0.1 0.05 0  0.15 0.05 0  0.2 0.05 0  0.25 0.05 0  0.3 0.05 0  0.35 0.05 0  0.4 0.05 0  0.45 0.05 0  0.5 0.05 0  0.55 0.05 0  0.6 0.05 0  0.65 0.05 0  0.7 0.05 0  0.75 0.05 0  0.8 0.05 0  0.85 0.05 0  0.9 0.05 0  0.95 0.05 0  1 0.05 0  0 0.1 0  0.05 0.1 0  0.1 0.1 0  0.15 0.1 0  0.2 0.1 0  0.25 0.1 0  0.3 0.1 0  0.35 0.1 0  0.4 0.1 0  0.45 0.1 0  0.5 0.1 0  0.55 0.1 0  0.6 0.1 0  0.65 0.1 0  0.7 0.1 0  0.75 0.1 0  0.8 0.1 0  0.85 0.1 0  0.9 0.1 0  0.95 0.1 0  1 0.1 0  0 0.15 0  0.05 0.15 0  0.1 0.15 0  0.15 0.15 0  0.2 0.15 0  0.25 0.15 0  0.3 0.15 0  0.35 0.15 0  0.4 0.15 0  0.45 0.15 0  0.5 0.15 0  0.55 0.15 0  0.6 0.15 0  0.65 0.15 0  0.7 0.15 0  0.75 0.15 0  0.8 0.15 0  0.85 0.15 0  0.9 0.15 0  0.95 0.15 0  1 0.15 0  0 0.2 0  0.05 0.2 0  0.1 0.2 0  0.15 0.2 0  0.2 0.2 0  0.25 0.2 0  0.3 0.2 0  0.35 0.2 0  0.4 0.2 0  0.45 0.2 0  0.5 0.2 0  0.55 0.2 0  0.6 0.2 0  0.65 0.2 0  0.7 0.2 0  0.75 0.2 0  0.8 0.2 0  0.85 0.2 0  0.9 0.2 0  0.95 0.2 0  1 0.2 0  0 0.25 0  0.05 0.25 0  0.1 0.25 0  0.15 0.25 0  0.2 0.25 0  0.25 0.25 0  0.3 0.25 0  0.35 0.25 0  0.4 0.25 0  0.45 0.25 0  0.5 0.25 0  0.55 0.25 0  0.6 0.25 0  0.65 0.25 0  0.7 0.25 0  0.75 0.25 0  0.8 0.25 0  0.85 0.25 0  0.9 0.25 0  0.95 0.25 0  1 0.25 0  0 0.3 0  0.05 0.3 0  0.1 0.3 0  0.15 0.3 0  0.2 0.3 0  0.25 0.3 0  0.3 0.3 0  0.35 0.3 0  0.4 0.3 0  0.45 0.3 0  0.5 0.3 0  0.55 0.3 0  0.6 0.3 0  0.65 0.3 0  0.7 0.3 0  0.75 0.3 0  0.8 0.3 0  0.85 0.3 0  0.9 0.3 0  0.95 0.3 0  1 0.3 0  0 0.35 0  0.05 0.35 0  0.1 0.35 0  0.15 0.35 0  0.2 0.35 0  0.25 0.35 0  0.3 0.35 0  0.35 0.35 0  0.4 0.35 0  0.45 0.35 0  0.5 0.35 0  0.55 0.35 0  0.6 0.35 0  0.65 0.35 0  0.7 0.35 0  0.75 0.35 0  0.8 0.35 0  0.85 0.35 0  0.9 0.35 0  0.95 0.35 0  1 0.35 0  0 0.4 0  0.05 0.4 0  0.1 0.4 0  0.15 0.4 0  0.2 0.4 0  0.25 0.4 0  0.3 0.4 0  0.35 0.4 0  0.4 0.4 0  0.45 0.4 0  0.5 0.4 0  0.55 0.4 0  0.6 0.4 0  0.65 0.4 0  0.7 0.4 0  0.75 0.4 0  0.8 0.4 0  0.85 0.4 0  0.9 0.4 0  0.95 0.4 0  1 0.4 0  0 0.45 0  0.05 0.45 0  0.1 0.45 0  0.15 0.45 0  0.2 0.45 0  0.25 0.45 0  0.3 0.45 0  0.35 0.45 0  0.4 0.45 0  0.45 0.45 0  0.5 0.45 0  0.55 0.45 0  0.6 0.45 0  0.65 0.45 0  0.7 0.45 0  0.75 0.45 0  0.8 0.45 0  0.85 0.45 0  0.9 0.45 0  0.95 0.45 0  1 0.45 0  0 0.5 0  0.05 0.5 0  0.1 0.5 0  0.15 0.5 0  0.2 0.5 0  0.25 0.5 0  0.3 0.5 0  0.35 0.5 0  0.4 0.5 0  0.45 0.5 0  0.5 0.5 0  0.55 0.5 0  0.6 0.5 0  0.65 0.5 0  0.7 0.5 0  0.75 0.5 0  0.8 0.5 0  0.85 0.5 0  0.9 0.5 0  0.95 0.5 0  1 0.5 0  0 0.55 0  0.05 0.55 0  0.1 0.55 0  0.15 0.55 0  0.2 0.55 0  0.25 0.55 0  0.3 0.55 0  0.35 0.55 0  0.4 0.55 0  0.45 0.55 0  0.5 0.55 0  0.55 0.55 0  0.6 0.55 0  0.65 0.55 0  0.7 0.55 0  0.75 0.55 0  0.8 0.55 0  0.85 0.55 0  0.9 0.55 0  0.95 0.55 0  1 0.55 0  0 0.6 0  0.05 0.6 0  0.1 0.6 0  0.15 0.6 0  0.2 0.6 0  0.25 0.6 0  0.3 0.6 0  0.35 0.6 0  0.4 0.6 0  0.45 0.6 0  0.5 0.6 0  0.55 0.6 0  0.6 0.6 0  0.65 0.6 0  0.7 0.6 0  0.75 0.6 0  0.8 0.6 0  0.85 0.6 0  0.9 0.6 0  0.95 0.6 0  1 0.6 0  0 0.65 0  0.05 0.65 0  0.1 0.65 0  0.15 0.65 0  0.2 0.65 0  0.25 0.65 0  0.3 0.65 0  0.35 0.65 0  0.4 0.65 0  0.45 0.65 0  0.5 0.65 0  0.55 0.65 0  0.6 0.65 0  0.65 0.65 0  0.7 0.65 0  0.75 0.65 0  0.8 0.65 0  0.85 0.65 0  0.9 0.65 0  0.95 0.65 0  1 0.65 0  0 0.7 0  0.05 0.7 0  0.1 0.7 0  0.15 0.7 0  0.2 0.7 0  0.25 0.7 0  0.3 0.7 0  0.35 0.7 0  0.4 0.7 0  0.45 0.7 0  0.5 0.7 0  0.55 0.7 0  0.6 0.7 0  0.65 0.7 0  0.7 0.7 0  0.75 0.7 0  0.8 0.7 0  0.85 0.7 0  0.9 0.7 0  0.95 0.7 0  1 0.7 0  0 0.75 0  0.05 0.75 0  0.1 0.75 0  0.15 0.75 0  0.2 0.75 0  0.25 0.75 0  0.3 0.75 0  0.35 0.75 0  0.4 0.75 0  0.45 0.75 0  0.5 0.75 0  0.55 0.75 0  0.6 0.75 0  0.65 0.75 0  0.7 0.75 0  0.75 0.75 0  0.8 0.75 0  0.85 0.75 0  0.9 0.75 0  0.95 0.75 0  1 0.75 0  0 0.8 0  0.05 0.8 0  0.1 0.8 0  0.15 0.8 0  0.2 0.8 0  0.25 0.8 0  0.3 0.8 0  0.35 0.8 0  0.4 0.8 0  0.45 0.8 0  0.5 0.8 0  0.55 0.8 0  0.6 0.8 0  0.65 0.8 0  0.7 0.8 0  0.75 0.8 0  0.8 0.8 0  0.85 0.8 0  0.9 0.8 0  0.95 0.8 0  1 0.8 0  0 0.85 0  0.05 0.85 0  0.1 0.85 0  0.15 0.85 0  0.2 0.85 0  0.25 0.85 0  0.3 0.85 0  0.35 0.85 0  0.4 0.85 0  0.45 0.85 0  0.5 0.85 0  0.55 0.85 0  0.6 0.85 0  0.65 0.85 0  0.7 0.85 0  0.75 0.85 0  0.8 0.85 0  0.85 0.85 0  0.9 0.85 0  0.95 0.85 0  1 0.85 0  0 0.9 0  0.05 0.9 0  0.1 0.9 0  0.15 0.9 0  0.2 0.9 0  0.25 0.9 0  0.3 0.9 0  0.35 0.9 0  0.4 0.9 0  0.45 0.9 0  0.5 0.9 0  0.55 0.9 0  0.6 0.9 0  0.65 0.9 0  0.7 0.9 0  0.75 0.9 0  0.8 0.9 0  0.85 0.9 0  0.9 0.9 0  0.95 0.9 0  1 0.9 0  0 0.95 0  0.05 0.95 0  0.1 0.95 0  0.15 0.95 0  0.2 0.95 0  0.25 0.95 0  0.3 0.95 0  0.35 0.95 0  0.4 0.95 0  0.45 0.95 0  0.5 0.95 0  0.55 0.95 0  0.6 0.95 0  0.65 0.95 0  0.7 0.95 0  0.75 0.95 0  0.8 0.95 0  0.85 0.95 0  0.9 0.95 0  0.95 0.95 0  1 0.95 0  0 1 0  0.05 1 0  0.1 1 0  0.15 1 0  0.2 1 0  0.25 1 0  0.3 1 0  0.35 1 0  0.4 1 0  0.45 1 0  0.5 1 0  0.55 1 0  0.6 1 0  0.65 1 0  0.7 1 0  0.75 1 0  0.8 1 0  0.85 1 0  0.9 1 0  0.95 1 0  1 1 0  </DataArray>
</Points>
<Cells>
[...]
<PointData  Scalars="f_25"> 
<DataArray  type="Float64"  Name="f_25"  format="ascii">0.0000000000000000e+00  0.0000000000000000e+00  0.0000000000000000e+00  0.0000000000000000e+00  0.0000000000000000e+00  0.0000000000000000e+00  0.0000000000000000e+00  0.0000000000000000e+00  0.0000000000000000e+00  0.0000000000000000e+00  0.0000000000000000e+00  0.0000000000000000e+00  0.0000000000000000e+00  0.0000000000000000e+00  0.0000000000000000e+00  0.0000000000000000e+00  0.0000000000000000e+00  0.0000000000000000e+00  0.0000000000000000e+00  0.0000000000000000e+00  0.0000000000000000e+00  0.0000000000000000e+00  3.3246280866410255e-05  8.6332981525710941e-05  1.6323865443863489e-04  2.6777890416381520e-04  4.0303414200836170e-04  5.7086296130668291e-04  7.7148237896472102e-04  1.0031324360247032e-03  1.2618357309932074e-03  1.5412336537574316e-03  1.8324334919626762e-03  2.1237297469118531e-03  2.3999572151451125e-03  2.6410698507961954e-03  2.8192748294169319e-03  2.8935973185063493e-03  2.7999020856161938e-03  2.4325919323886910e-03  1.6097012887650061e-03  0.0000000000000000e+00  0.0000000000000000e+00  8.6332981525710968e-05  2.2117895427777937e-04  4.1515715929310739e-04  6.7796432044178875e-04  1.0173091641564600e-03  1.4378025937015471e-03  1.9399421803218649e-03  2.5192809433284211e-03  3.1658174981987436e-03  3.8635622090194425e-03  4.5901107270807781e-03  5.3158765431683703e-03  6.0023688487536898e-03  6.5984991228778839e-03  7.0332696508904830e-03  7.2021837047696333e-03  6.9430411012762353e-03  5.9939390217155358e-03  3.9214800571522272e-03  0.0000000000000000e+00  0.0000000000000000e+00  1.6323865443863497e-04  4.1515715929310750e-04  7.7553058133240861e-04  1.2623136957262376e-03  1.8897122834437309e-03  2.6661899380521206e-03  3.5926241940700274e-03  4.6607784009017319e-03  5.8521588527805472e-03  7.1371712598948525e-03  8.4742607621776950e-03  9.8083877246926809e-03  1.1067708148738356e-02  1.2156609793117510e-02  1.2942173186357788e-02  1.3229489896764113e-02  1.2718822490011402e-02  1.0934061006033351e-02  7.1073120560615584e-03  0.0000000000000000e+00  0.0000000000000000e+00  2.6777890416381531e-04  6.7796432044178907e-04  1.2623136957262378e-03  2.0496889664600132e-03  3.0629195808814925e-03  4.3155999669295449e-03  5.8091270752206776e-03  7.5302283260059878e-03  9.4490833011846229e-03  1.1517894559720531e-02  1.3669393493009632e-02  1.5814236199672729e-02  1.7835480858011270e-02  1.9577227966568193e-02  2.0822883531227489e-02  2.1256163419775535e-02  2.0394681896365355e-02  1.7481672753126915e-02  1.1316442331707295e-02  0.0000000000000000e+00  0.0000000000000000e+00  4.0303414200836175e-04  1.0173091641564602e-03  1.8897122834437314e-03  3.0629195808814951e-03  4.5707248449199864e-03  6.4332812962161522e-03  8.6526939211794222e-03  1.1209318273778900e-02  1.4058907742993391e-02  1.7130386611184784e-02  2.0323481359155803e-02  2.3504663134422281e-02  2.6498745525536112e-02  2.9071897525140646e-02  3.0899573171746034e-02  3.1509699680685815e-02  3.0187223042741951e-02  2.5820813159782869e-02  1.6666725708756751e-02  0.0000000000000000e+00  0.0000000000000000e+00  5.7086296130668323e-04  1.4378025937015484e-03  2.6661899380521219e-03  4.3155999669295501e-03  6.4332812962161531e-03  9.0474895059847599e-03  1.2161289906903924e-02  1.5747317049941416e-02  1.9743679759196355e-02  2.4050692611352287e-02  2.8527356765307113e-02  3.2985433565927397e-02  3.7177433132726916e-02  4.0772696418460798e-02  4.3312747490124814e-02  4.4132982510127559e-02  4.2232376560330610e-02  3.6066338398152264e-02  2.3230822285689755e-02  0.0000000000000000e+00  0.0000000000000000e+00  7.7148237896472178e-04  1.9399421803218662e-03  3.5926241940700291e-03  5.8091270752206811e-03  8.6526939211794239e-03  1.2161289906903927e-02  1.6339269827907805e-02  2.1150278442407449e-02  2.6511628090955516e-02  3.2289721375343652e-02  3.8295078216113755e-02  4.4274096449380740e-02  4.9892675042209400e-02  5.4704040861001335e-02  5.8089267531617896e-02  5.9153778546582741e-02  5.6556426703984260e-02  4.8239722448539316e-02  3.1021320776184080e-02  0.0000000000000000e+00  0.0000000000000000e+00  1.0031324360247037e-03  2.5192809433284228e-03  4.6607784009017337e-03  7.5302283260059930e-03  1.1209318273778907e-02  1.5747317049941437e-02  2.1150278442407459e-02  2.7371770138403646e-02  3.4305435902303907e-02  4.1778830819376445e-02  4.9546676356424811e-02  5.7279854237204920e-02  6.4543917693190692e-02  7.0757387682558862e-02  7.5115300409183544e-02  7.6457069054059829e-02  7.3049563782667193e-02  6.2246670300901107e-02  3.9976561246676458e-02  0.0000000000000000e+00  0.0000000000000000e+00  1.2618357309932087e-03  3.1658174981987470e-03  5.8521588527805542e-03  9.4490833011846333e-03  1.4058907742993390e-02  1.9743679759196355e-02  2.6511628090955516e-02  3.4305435902303887e-02  4.2992714418245745e-02  5.2357976425809506e-02  6.2093803175014638e-02  7.1786633587334406e-02  8.0889472661707915e-02  8.8669518092290414e-02  9.4112876624466699e-02  9.5760842047805425e-02  9.1442495002992924e-02  7.7857037831234877e-02  4.9947671648176518e-02  0.0000000000000000e+00  0.0000000000000000e+00  1.5412336537574333e-03  3.8635622090194455e-03  7.1371712598948586e-03  1.1517894559720536e-02  1.7130386611184777e-02  2.4050692611352283e-02  3.2289721375343639e-02  4.1778830819376424e-02  5.2357976425809492e-02  6.3765572898243958e-02  7.5627280703776084e-02  8.7438200317070128e-02  9.8529198638540511e-02  1.0800296657232478e-01  1.1461850973775990e-01  1.1659373968506745e-01  1.1128454836860874e-01  9.4685723638486416e-02  6.0685991302461460e-02  0.0000000000000000e+00  0.0000000000000000e+00  1.8324334919626781e-03  4.5901107270807824e-03  8.4742607621777054e-03  1.3669393493009645e-02  2.0323481359155803e-02  2.8527356765307117e-02  3.8295078216113734e-02  4.9546676356424756e-02  6.2093803175014610e-02  7.5627280703776070e-02  8.9703266530353057e-02  1.0372154965824219e-01  1.1688509448272336e-01  1.2812399077547210e-01  1.3595900727177856e-01  1.3826961090972067e-01  1.3191854177439508e-01  1.1217050254861570e-01  7.1828284197889294e-02  0.0000000000000000e+00  0.0000000000000000e+00  2.1237297469118548e-03  5.3158765431683755e-03  9.8083877246926878e-03  1.5814236199672729e-02  2.3504663134422274e-02  3.2985433565927376e-02  4.4274096449380726e-02  5.7279854237204879e-02  7.1786633587334350e-02  8.7438200317070086e-02  1.0372154965824214e-01  1.1994113595934650e-01  1.3517149382716553e-01  1.4816904821090551e-01  1.5721496211839736e-01  1.5984936992690085e-01  1.5244332028974994e-01  1.2953910147221151e-01  8.2874809853156331e-02  0.0000000000000000e+00  0.0000000000000000e+00  2.3999572151451143e-03  6.0023688487536959e-03  1.1067708148738364e-02  1.7835480858011270e-02  2.6498745525536101e-02  3.7177433132726888e-02  4.9892675042209393e-02  6.4543917693190650e-02  8.0889472661707887e-02  9.8529198638540469e-02  1.1688509448272336e-01  1.3517149382716556e-01  1.5234098681874361e-01  1.6698474741971994e-01  1.7715617473825318e-01  1.8007436702210983e-01  1.7164912062596055e-01  1.4575308532396206e-01  9.3152380191912770e-02  0.0000000000000000e+00  0.0000000000000000e+00  2.6410698507961967e-03  6.5984991228778874e-03  1.2156609793117511e-02  1.9577227966568186e-02  2.9071897525140621e-02  4.0772696418460756e-02  5.4704040861001293e-02  7.0757387682558834e-02  8.8669518092290386e-02  1.0800296657232476e-01  1.2812399077547212e-01  1.4816904821090551e-01  1.6698474741972000e-01  1.8301828506892551e-01  1.9412507927762651e-01  1.9724749715243722e-01  1.8790370083469185e-01  1.5941037469413388e-01  1.0175111986283245e-01  0.0000000000000000e+00  0.0000000000000000e+00  2.8192748294169328e-03  7.0332696508904847e-03  1.2942173186357793e-02  2.0822883531227489e-02  3.0899573171746013e-02  4.3312747490124801e-02  5.8089267531617840e-02  7.5115300409183530e-02  9.4112876624466699e-02  1.1461850973775989e-01  1.3595900727177843e-01  1.5721496211839733e-01  1.7715617473825312e-01  1.9412507927762668e-01  2.0583386092349820e-01  2.0902843142586600e-01  1.9895868509156633e-01  1.6858196877181184e-01  1.0742037009008658e-01  0.0000000000000000e+00  0.0000000000000000e+00  2.8935973185063493e-03  7.2021837047696298e-03  1.3229489896764104e-02  2.1256163419775528e-02  3.1509699680685788e-02  4.4132982510127525e-02  5.9153778546582686e-02  7.6457069054059787e-02  9.5760842047805411e-02  1.1659373968506742e-01  1.3826961090972062e-01  1.5984936992690083e-01  1.8007436702210994e-01  1.9724749715243753e-01  2.0902843142586616e-01  2.1209812975109554e-01  2.0163687312251211e-01  1.7055340488449691e-01  1.0840790525913552e-01  0.0000000000000000e+00  0.0000000000000000e+00  2.7999020856161929e-03  6.9430411012762318e-03  1.2718822490011389e-02  2.0394681896365334e-02  3.0187223042741906e-02  4.2232376560330576e-02  5.6556426703984225e-02  7.3049563782667151e-02  9.1442495002992855e-02  1.1128454836860872e-01  1.3191854177439505e-01  1.5244332028974988e-01  1.7164912062596063e-01  1.8790370083469207e-01  1.9895868509156650e-01  2.0163687312251213e-01  1.9135529004908058e-01  1.6144219546256533e-01  1.0223260103652243e-01  0.0000000000000000e+00  0.0000000000000000e+00  2.4325919323886897e-03  5.9939390217155298e-03  1.0934061006033339e-02  1.7481672753126894e-02  2.5820813159782834e-02  3.6066338398152230e-02  4.8239722448539274e-02  6.2246670300901065e-02  7.7857037831234835e-02  9.4685723638486402e-02  1.1217050254861576e-01  1.2953910147221154e-01  1.4575308532396206e-01  1.5941037469413399e-01  1.6858196877181197e-01  1.7055340488449697e-01  1.6144219546256539e-01  1.3567998913815713e-01  8.5408384450869915e-02  0.0000000000000000e+00  0.0000000000000000e+00  1.6097012887650048e-03  3.9214800571522237e-03  7.1073120560615505e-03  1.1316442331707279e-02  1.6666725708756727e-02  2.3230822285689727e-02  3.1021320776184042e-02  3.9976561246676444e-02  4.9947671648176505e-02  6.0685991302461481e-02  7.1828284197889322e-02  8.2874809853156303e-02  9.3152380191912812e-02  1.0175111986283247e-01  1.0742037009008666e-01  1.0840790525913556e-01  1.0223260103652250e-01  8.5408384450869942e-02  5.3228360047308652e-02  0.0000000000000000e+00  0.0000000000000000e+00  0.0000000000000000e+00  0.0000000000000000e+00  0.0000000000000000e+00  0.0000000000000000e+00  0.0000000000000000e+00  0.0000000000000000e+00  0.0000000000000000e+00  0.0000000000000000e+00  0.0000000000000000e+00  0.0000000000000000e+00  0.0000000000000000e+00  0.0000000000000000e+00  0.0000000000000000e+00  0.0000000000000000e+00  0.0000000000000000e+00  0.0000000000000000e+00  0.0000000000000000e+00  0.0000000000000000e+00  0.0000000000000000e+00  0.0000000000000000e+00  </DataArray> 
</PointData> 
</Piece>
</UnstructuredGrid>
</VTKFile>