<?xml version="1.0"?>
<VTKFile type="UnstructuredGrid"  version="0.1"  >
<UnstructuredGrid>
<Piece  NumberOfPoints="441" NumberOfCells="800">
<Points>
<DataArray  type="Float64"  NumberOfComponents="3"  format="ascii">0 0 0  0.05 0 0  0.1 0 0  0.15 0 0  0.2 0 0  0.25 0 0  0.3 0 0  0.35 0 0  0.4 0 0  0.45 0 0  0.5 0 0  0.55 0 0  0.6 0 0  0.65 0 0  0.7 0 0  0.75 0 0  0.8 0 0  0.85 0 0  0.9 0 0  0.95 0 0  1 0 0  0 0.05 0  0.05 0.05 0  0.1 0.05 0  0.15 0.05 0  0.2 0.05 0  0.25 0.05 0  0.3 0.05 0  0.35 0.05 0  0.4 0.05 0  0.45 0.05 0  0.5 0.05 0  0.55 0.05 0  0.6 0.05 0  0.65 0.05 0  0.7 0.05 0  0.75 0.05 0  0.8 0.05 0  0.85 0.05 0  0.9 0.05 0  0.95 0.05 0  1 0.05 0  0 0.1 0  0.05 0.1 0  0.1 0.1 0  0.15 0.1 0  0.2 0.1 0  0.25 0.1 0  0.3 0.1 0  0.35 0.1 0  0.4 0.1 0  0.45 0.1 0  0.5 0.1 0  0.55 0.1 0  0.6 0.1 0  0.65 0.1 0  0.7 0.1 0  0.75 0.1 0  0.8 0.1 0  0.85 0.1 0  0.9 0.1 0  0.95 0.1 0  1 0.1 0  0 0.15 0  0.05 0.15 0  0.1 0.15 0  0.15 0.15 0  0.2 0.15 0  0.25 0.15 0  0.3 0.15 0  0.35 0.15 0  0.4 0.15 0  0.45 0.15 0  0.5 0.15 0  0.55 0.15 0  0.6 0.15 0  0.65 0.15 0  0.7 0.15 0  0.75 0.15 0  0.8 0.15 0  0.85 0.15 0  0.9 0.15 0  0.95 0.15 0  1 0.15 0  0 0.2 0  0.05 0.2 0  0.1 0.2 0  0.15 0.2 0  0.2 0.2 0  0.25 0.2 0  0.3 0.2 0  0.35 0.2 0  0.4 0.2 0  0.45 0.2 0  0.5 0.2 0  0.55 0.2 0  0.6 0.2 0  0.65 0.2 0  0.7 0.2 0  0.75 0.2 0  0.8 0.2 0  0.85 0.2 0  0.9 0.2 0  0.95 0.2 0  1 0.2 0  0 0.25 0  0.05 0.25 0  0.1 0.25 0  0.15 0.25 0  0.2 0.25 0  0.25 0.25 0  0.3 0.25 0  0.35 0.25 0  0.4 0.25 0  0.45 0.25 0  0.5 0.25 0  0.55 0.25 0  0.6 0.25 0  0.65 0.25 0  0.7 0.25 0  0.75 0.25 0  0.8 0.25 0  0.85 0.25 0  0.9 0.25 0  0.95 0.25 0  1 0.25 0  0 0.3 0  0.05 0.3 0  0.1 0.3 0  0.15 0.3 0  0.2 0.3 0  0.25 0.3 0  0.3 0.3 0  0.35 0.3 0  0.4 0.3 0  0.45 0.3 0  0.5 0.3 0  0.55 0.3 0  0.6 0.3 0  0.65 0.3 0  0.7 0.3 0  0.75 0.3 0  0.8 0.3 0  0.85 0.3 0  0.9 0.3 0  0.95 0.3 0  1 0.3 0  0 0.35 0  0.05 0.35 0  0.1 0.35 0  0.15 0.35 0  0.2 0.35 0  0.25 0.35 0  0.3 0.35 0  0.35 0.35 0  0.4 0.35 0  0.45 0.35 0  0.5 0.35 0  0.55 0.35 0  0.6 0.35 0  0.65 0.35 0  0.7 0.35 0  0.75 0.35 0  0.8 0.35 0  0.85 0.35 0  0.9 0.35 0  0.95 0.35 0  1 0.35 0  0 0.4 0  0.05 0.4 0  0.1 0.4 0  0.15 0.4 0  0.2 0.4 0  0.25 0.4 0  0.3 0.4 0  0.35 0.4 0  0.4 0.4 0  0.45 0.4 0  0.5 0.4 0  0.55 0.4 0  0.6 0.4 0  0.65 0.4 0  0.7 0.4 0  0.75 0.4 0  0.8 0.4 0  0.85 0.4 0  0.9 0.4 0  0.95 0.4 0  1 0.4 0  0 0.45 0  0.05 0.45 0  0.1 0.45 0  0.15 0.45 0  0.2 0.45 0  0.25 0.45 0  0.3 0.45 0  0.35 0.45 0  0.4 0.45 0  0.45 0.45 0  0.5 0.45 0  0.55 0.45 0  0.6 0.45 0  0.65 0.45 0  0.7 0.45 0  0.75 0.45 0  0.8 0.45 0  0.85 0.45 0  0.9 0.45 0  0.95 0.45 0  1 0.45 0  0 0.5 0  0.05 0.5 0  0.1 0.5 0  0.15 0.5 0  0.2 0.5 0  0.25 0.5 0  0.3 0.5 0  0.35 0.5 0  0.4 0.5 0  0.45 0.5 0  0.5 0.5 0  0.55 0.5 0  0.6 0.5 0  0.65 0.5 0  0.7 0.5 0  0.75 0.5 0  0.8 0.5 0  0.85 0.5 0  0.9 0.5 0  0.95 0.5 0  1 0.5 0  0 0.55 0  0.05 0.55 0  0.1 0.55 0  0.15 0.55 0  0.2 0.55 0  0.25 0.55 0  0.3 0.55 0  0.35 0.55 0  0.4 0.55 0  0.45 0.55 0  0.5 0.55 0  0.55 0.55 0  0.6 0.55 0  0.65 0.55 0  0.7 0.55 0  0.75 0.55 0  0.8 0.55 0  0.85 0.55 0  0.9 0.55 0  0.95 0.55 0  1 0.55 0  0 0.6 0  0.05 0.6 0  0.1 0.6 0  0.15 0.6 0  0.2 0.6 0  0.25 0.6 0  0.3 0.6 0  0.35 0.6 0  0.4 0.6 0  0.45 0.6 0  0.5 0.6 0  0.55 0.6 0  0.6 0.6 0  0.65 0.6 0  0.7 0.6 0  0.75 0.6 0  0.8 0.6 0  0.85 0.6 0  0.9 0.6 0  0.95 0.6 0  1 0.6 0  0 0.65 0  0.05 0.65 0  0.1 0.65 0  0.15 0.65 0  0.2 0.65 0  0.25 0.65 0  0.3 0.65 0  0.35 0.65 0  0.4 0.65 0  0.45 0.65 0  0.5 0.65 0  0.55 0.65 0  0.6 0.65 0  0.65 0.65 0  0.7 0.65 0  0.75 0.65 0  0.8 0.65 0  0.85 0.65 0  0.9 0.65 0  0.95 0.65 0  1 0.65 0  0 0.7 0  0.05 0.7 0  0.1 0.7 0  0.15 0.7 0  0.2 0.7 0  0.25 0.7 0  0.3 0.7 0  0.35 0.7 0  0.4 0.7 0  0.45 0.7 0  0.5 0.7 0  0.55 0.7 0  0.6 0.7 0  0.65 0.7 0  0.7 0.7 0  0.75 0.7 0  0.8 0.7 0  0.85 0.7 0  0.9 0.7 0  0.95 0.7 0  1 0.7 0  0 0.75 0  0.05 0.75 0  0.1 0.75 0  0.15 0.75 0  0.2 0.75 0  0.25 0.75 0  0.3 0.75 0  0.35 0.75 0  0.4 0.75 0  0.45 0.75 0  0.5 0.75 0  0.55 0.75 0  0.6 0.75 0  0.65 0.75 0  0.7 0.75 0  0.75 0.75 0  0.8 0.75 0  0.85 0.75 0  0.9 0.75 0  0.95 0.75 0  1 0.75 0  0 0.8 0  0.05 0.8 0  0.1 0.8 0  0.15 0.8 0  0.2 0.8 0  0.25 0.8 0  0.3 0.8 0  0.35 0.8 0  0.4 0.8 0  0.45 0.8 0  0.5 0.8 0  0.55 0.8 0  0.6 0.8 0  0.65 0.8 0  0.7 0.8 0  0.75 0.8 0  0.8 0.8 0  0.85 0.8 0  0.9 0.8 0  0.95 0.8 0  1 0.8 0  0 0.85 0  0.05 0.85 0  0.1 0.85 0  0.15 0.85 0  0.2 0.85 0  0.25 0.85 0  0.3 0.85 0  0.35 0.85 0  0.4 0.85 0  0.45 0.85 0  0.5 0.85 0  0.55 0.85 0  0.6 0.85 0  0.65 0.85 0  0.7 0.85 0  0.75 0.85 0  0.8 0.85 0  0.85 0.85 0  0.9 0.85 0  0.95 0.85 0  1 0.85 0  0 0.9 0  0.05 0.9 0  0.1 0.9 0  0.15 0.9 0  0.2 0.9 0  0.25 0.9 0  0.3 0.9 0  0.35 0.9 0  0.4 0.9 0  0.45 0.9 0  0.5 0.9 0  0.55 0.9 0  0.6 0.9 0  0.65 0.9 0  0.7 0.9 0  0.75 0.9 0  0.8 0.9 0  0.85 0.9 0  0.9 0.9 0  0.95 0.9 0  1 0.9 0  0 0.95 0  0.05 0.95 0  0.1 0.95 0  0.15 0.95 0  0.2 0.95 0  0.25 0.95 0  0.3 0.95 0  0.35 0.95 0  0.4 0.95 0  0.45 0.95 0  0.5 0.95 0  0.55 0.95 0  0.6 0.95 0  0.65 0.95 0  0.7 0.95 0  0.75 0.95 0  0.8 0.95 0  0.85 0.95 0  0.9 0.95 0  0.95 0.95 0  1 0.95 0  0 1 0  0.05 1 0  0.1 1 0  0.15 1 0  0.2 1 0  0.25 1 0  0.3 1 0  0.35 1 0  0.4 1 0  0.45 1 0  0.5 1 0  0.55 1 0  0.6 1 0  0.65 1 0  0.7 1 0  0.75 1 0  0.8 1 0  0.85 1 0  0.9 1 0  0.95 1 0  1 1 0  </DataArray>
</Points>
<Cells>
[...]
<PointData  Scalars="f_25"> 
<DataArray  type="Float64"  Name="f_25"  format="ascii">0.0000000000000000e+00  0.0000000000000000e+00  0.0000000000000000e+00  0.0000000000000000e+00  0.0000000000000000e+00  0.0000000000000000e+00  0.0000000000000000e+00  0.0000000000000000e+00  0.0000000000000000e+00  0.0000000000000000e+00  0.0000000000000000e+00  0.0000000000000000e+00  0.0000000000000000e+00  0.0000000000000000e+00  0.0000000000000000e+00  0.0000000000000000e+00  0.0000000000000000e+00  0.0000000000000000e+00  0.0000000000000000e+00  0.0000000000000000e+00  0.0000000000000000e+00  0.0000000000000000e+00  1.6265051638286547e-06  4.2961567503154025e-06  8.2997460818397121e-06  1.3976792395562284e-05  2.1695984465256658e-05  3.1833799358445848e-05  4.4746817779606837e-05  6.0735227507998674e-05  7.9994839176630996e-05  1.0255354791607544e-04  1.2818546060843481e-04  1.5629137554562186e-04  1.8572711856232370e-04  2.1455002985449223e-04  2.3963604731187051e-04  2.5608944262498135e-04  2.5630869172700067e-04  2.2843849700387458e-04  1.5357777343297452e-04  0.0000000000000000e+00  0.0000000000000000e+00  4.2961567503154017e-06  1.1181017162016269e-05  2.1427063097752555e-05  3.5901261683590162e-05  5.5534289816744734e-05  8.1271418610684339e-05  1.1400362674764219e-04  1.5447505252466837e-04  2.0316054023344560e-04  2.6010294458614141e-04  3.2469279857146917e-04  3.9536148309129239e-04  4.6914117789241414e-04  5.4101766999022549e-04  6.0296068998588867e-04  6.4245189680471582e-04  6.4022508569166971e-04  5.6675102594843220e-04  3.7668151130726982e-04  0.0000000000000000e+00  0.0000000000000000e+00  8.2997460818397189e-06  2.1427063097752558e-05  4.0842499248639933e-05  6.8174171607609485e-05  1.0516093841158692e-04  1.5356204559391332e-04  2.1502850930984937e-04  2.9092900975271778e-04  3.8211861189105001e-04  4.8863076650452358e-04  6.0925980130067698e-04  7.4097998134869426e-04  8.7811496161237592e-04  1.0111237822560042e-03  1.1248006231490918e-03  1.1955872399941629e-03  1.1875588446106215e-03  1.0464575565890233e-03  6.9092941315585627e-04  0.0000000000000000e+00  0.0000000000000000e+00  1.3976792395562290e-05  3.5901261683590176e-05  6.8174171607609540e-05  1.1346881781375479e-04  1.7463417388619281e-04  2.5454504861800021e-04  3.5588951685404878e-04  4.8088082704567358e-04  6.3087405550047164e-04  8.0585500137011796e-04  1.0037473547790073e-03  1.2194503625543480e-03  1.4434685755095186e-03  1.6599225278333702e-03  1.8436286651804634e-03  1.9558035085968230e-03  1.9377801824092542e-03  1.7019384246420104e-03  1.1188935128667100e-03  0.0000000000000000e+00  0.0000000000000000e+00  2.1695984465256688e-05  5.5534289816744761e-05  1.0516093841158701e-04  1.7463417388619289e-04  2.6827359969780934e-04  3.9042952480355247e-04  5.4515695995260805e-04  7.3577395175061485e-04  9.6427353549688010e-04  1.2305394144976956e-03  1.5312834710786811e-03  1.8585733807333679e-03  2.1977451865514272e-03  2.5243927410638087e-03  2.7999885501380595e-03  2.9655177227344404e-03  2.9323070090443736e-03  2.5690335093391786e-03  1.6837706636299448e-03  0.0000000000000000e+00  0.0000000000000000e+00  3.1833799358445889e-05  8.1271418610684434e-05  1.5356204559391362e-04  2.5454504861800048e-04  3.9042952480355247e-04  5.6745850626135485e-04  7.9143514113461609e-04  1.0670809265115860e-03  1.3971810218032588e-03  1.7814443461691377e-03  2.2149609952875943e-03  2.6860699422577524e-03  3.1733489314490068e-03  3.6412994260646993e-03  4.0341187244893866e-03  4.2667321533676559e-03  4.2120179128118003e-03  3.6829383198561960e-03  2.4081763759518570e-03  0.0000000000000000e+00  0.0000000000000000e+00  4.4746817779606871e-05  1.1400362674764219e-04  2.1502850930984956e-04  3.5588951685404889e-04  5.4515695995260805e-04  7.9143514113461642e-04  1.1027018696178222e-03  1.4854137625360819e-03  1.9433144618103814e-03  2.4758455113216191e-03  3.0759984465515821e-03  3.7273533254068669e-03  4.3999149562361358e-03  5.0441764706151563e-03  5.5826083782371813e-03  5.8974976887842222e-03  5.8137724964069078e-03  5.0751993066988632e-03  3.3122341332574787e-03  0.0000000000000000e+00  0.0000000000000000e+00  6.0735227507998694e-05  1.5447505252466837e-04  2.9092900975271783e-04  4.8088082704567374e-04  7.3577395175061506e-04  1.0670809265115871e-03  1.4854137625360819e-03  1.9993184291517544e-03  2.6136686841743001e-03  3.3275250488288867e-03  4.1312445378788145e-03  5.0025055140946089e-03  5.9007397031228355e-03  6.7592326011972868e-03  7.4738637399466802e-03  7.8871226707437347e-03  7.7656917319493023e-03  6.7696058544873677e-03  4.4109074436664668e-03  0.0000000000000000e+00  0.0000000000000000e+00  7.9994839176631064e-05  2.0316054023344581e-04  3.8211861189105028e-04  6.3087405550047197e-04  9.6427353549688054e-04  1.3971810218032594e-03  1.9433144618103818e-03  2.6136686841743014e-03  3.4144136329722465e-03  4.3440936139739266e-03  5.3898511116676007e-03  6.5222455263700607e-03  7.6880212892519650e-03  8.7998936593161534e-03  9.7220658998826235e-03  1.0249787916308928e-02  1.0080862529187825e-02  8.7766942653129017e-03  5.7104108165781002e-03  0.0000000000000000e+00  0.0000000000000000e+00  1.0255354791607550e-04  2.6010294458614152e-04  4.8863076650452401e-04  8.0585500137011796e-04  1.2305394144976954e-03  1.7814443461691373e-03  2.4758455113216182e-03  3.3275250488288867e-03  4.3440936139739258e-03  5.5234230776386719e-03  6.8488426973588390e-03  8.2825629051780942e-03  9.7565270645085713e-03  1.1159545290458112e-02  1.2319140660353084e-02  1.2976064126452469e-02  1.2748973423170409e-02  1.1086439528073774e-02  7.2034300329880899e-03  0.0000000000000000e+00  0.0000000000000000e+00  1.2818546060843492e-04  3.2469279857146933e-04  6.0925980130067741e-04  1.0037473547790075e-03  1.5312834710786802e-03  2.2149609952875930e-03  3.0759984465515799e-03  4.1312445378788119e-03  5.3898511116675972e-03  6.8488426973588356e-03  8.4871576004593319e-03  1.0257508711926780e-02  1.2075097885975673e-02  1.3801809268398137e-02  1.5224013762889732e-02  1.6021576106502674e-02  1.5725148692076453e-02  1.3658506066635635e-02  8.8627476182999189e-03  0.0000000000000000e+00  0.0000000000000000e+00  1.5629137554562189e-04  3.9536148309129234e-04  7.4097998134869405e-04  1.2194503625543474e-03  1.8585733807333664e-03  2.6860699422577494e-03  3.7273533254068630e-03  5.0025055140946045e-03  6.5222455263700546e-03  8.2825629051780855e-03  1.0257508711926780e-02  1.2389370946182700e-02  1.4575096585834875e-02  1.6647353950417235e-02  1.8348072647620249e-02  1.9291704191053249e-02  1.8914917346054983e-02  1.6409154588582865e-02  1.0632698378785258e-02  0.0000000000000000e+00  0.0000000000000000e+00  1.8572711856232362e-04  4.6914117789241381e-04  8.7811496161237560e-04  1.4434685755095173e-03  2.1977451865514250e-03  3.1733489314490033e-03  4.3999149562361289e-03  5.9007397031228277e-03  7.6880212892519555e-03  9.7565270645085644e-03  1.2075097885975669e-02  1.4575096585834868e-02  1.7134497358878419e-02  1.9555792787452984e-02  2.1535291179914779e-02  2.2620756722331610e-02  2.2153840120650144e-02  1.9193574553816886e-02  1.2417686518761659e-02  0.0000000000000000e+00  0.0000000000000000e+00  2.1455002985449210e-04  5.4101766999022517e-04  1.0111237822560037e-03  1.6599225278333680e-03  2.5243927410638048e-03  3.6412994260646946e-03  5.0441764706151511e-03  6.7592326011972825e-03  8.7998936593161482e-03  1.1159545290458107e-02  1.3801809268398128e-02  1.6647353950417231e-02  1.9555792787452984e-02  2.2300670422949892e-02  2.4534912828066059e-02  2.5743519085044412e-02  2.5179869528829450e-02  2.1782091055137315e-02  1.4066833310302373e-02  0.0000000000000000e+00  0.0000000000000000e+00  2.3963604731187040e-04  6.0296068998588813e-04  1.1248006231490916e-03  1.8436286651804621e-03  2.7999885501380564e-03  4.0341187244893823e-03  5.5826083782371727e-03  7.4738637399466741e-03  9.7220658998826252e-03  1.2319140660353082e-02  1.5224013762889716e-02  1.8348072647620242e-02  2.1535291179914772e-02  2.4534912828066070e-02  2.6963989990025576e-02  2.8256572192225670e-02  2.7596156974736386e-02  2.3828530872061302e-02  1.5353826975261135e-02  0.0000000000000000e+00  0.0000000000000000e+00  2.5608944262498124e-04  6.4245189680471506e-04  1.1955872399941612e-03  1.9558035085968208e-03  2.9655177227344361e-03  4.2667321533676498e-03  5.8974976887842152e-03  7.8871226707437278e-03  1.0249787916308926e-02  1.2976064126452464e-02  1.6021576106502660e-02  1.9291704191053239e-02  2.2620756722331607e-02  2.5743519085044433e-02  2.8256572192225687e-02  2.9566459810197475e-02  2.8822002875885201e-02  2.4829353910467273e-02  1.5951532299361054e-02  0.0000000000000000e+00  0.0000000000000000e+00  2.5630869172700035e-04  6.4022508569166873e-04  1.1875588446106191e-03  1.9377801824092516e-03  2.9323070090443689e-03  4.2120179128117934e-03  5.8137724964068983e-03  7.7656917319492902e-03  1.0080862529187811e-02  1.2748973423170384e-02  1.5725148692076436e-02  1.8914917346054959e-02  2.2153840120650151e-02  2.5179869528829453e-02  2.7596156974736386e-02  2.8822002875885207e-02  2.8030462145422749e-02  2.4073659399730718e-02  1.5402654343708239e-02  0.0000000000000000e+00  0.0000000000000000e+00  2.2843849700387425e-04  5.6675102594843133e-04  1.0464575565890218e-03  1.7019384246420072e-03  2.5690335093391729e-03  3.6829383198561882e-03  5.0751993066988545e-03  6.7696058544873573e-03  8.7766942653128895e-03  1.1086439528073760e-02  1.3658506066635623e-02  1.6409154588582855e-02  1.9193574553816883e-02  2.1782091055137315e-02  2.3828530872061306e-02  2.4829353910467280e-02  2.4073659399730718e-02  2.0588341975227405e-02  1.3092719685025522e-02  0.0000000000000000e+00  0.0000000000000000e+00  1.5357777343297425e-04  3.7668151130726911e-04  6.9092941315585508e-04  1.1188935128667076e-03  1.6837706636299405e-03  2.4081763759518510e-03  3.3122341332574726e-03  4.4109074436664590e-03  5.7104108165780916e-03  7.2034300329880804e-03  8.8627476182999120e-03  1.0632698378785249e-02  1.2417686518761652e-02  1.4066833310302370e-02  1.5353826975261133e-02  1.5951532299361058e-02  1.5402654343708239e-02  1.3092719685025522e-02  8.2454138962442577e-03  0.0000000000000000e+00  0.0000000000000000e+00  0.0000000000000000e+00  0.0000000000000000e+00  0.0000000000000000e+00  0.0000000000000000e+00  0.0000000000000000e+00  0.0000000000000000e+00  0.0000000000000000e+00  0.0000000000000000e+00  0.0000000000000000e+00  0.0000000000000000e+00  0.0000000000000000e+00  0.0000000000000000e+00  0.0000000000000000e+00  0.0000000000000000e+00  0.0000000000000000e+00  0.0000000000000000e+00  0.0000000000000000e+00  0.0000000000000000e+00  0.0000000000000000e+00  0.0000000000000000e+00  </DataArray> 
</PointData> 
</Piece>
</UnstructuredGrid>
</VTKFile>