<?xml version="1.0"?>
<VTKFile type="UnstructuredGrid"  version="0.1"  >
<UnstructuredGrid>
<Piece  NumberOfPoints="441" NumberOfCells="800">
<Points>
<DataArray  type="Float64"  NumberOfComponents="3"  format="ascii">0 0 0  0.05 0 0  0.1 0 0  0.15 0 0  0.2 0 0  0.25 0 0  0.3 0 0  0.35 0 0  0.4 0 0  0.45 0 0  0.5 0 0  0.55 0 0  0.6 0 0  0.65 0 0  0.7 0 0  0.75 0 0  0.8 0 0  0.85 0 0  0.9 0 0  0.95 0 0  1 0 0  0 0.05 0  0.05 0.05 0  0.1 0.05 0  0.15 0.05 0  0.2 0.05 0  0.25 0.05 0  0.3 0.05 0  0.35 0.05 0  0.4 0.05 0  0.45 0.05 0  0.5 0.05 0  0.55 0.05 0  0.6 0.05 0  0.65 0.05 0  0.7 0.05 0  0.75 0.05 0  0.8 0.05 0  0.85 0.05 0  0.9 0.05 0  0.95 0.05 0  1 0.05 0  0 0.1 0  0.05 0.1 0  0.1 0.1 0  0.15 0.1 0  0.2 0.1 0  0.25 0.1 0  0.3 0.1 0  0.35 0.1 0  0.4 0.1 0  0.45 0.1 0  0.5 0.1 0  0.55 0.1 0  0.6 0.1 0  0.65 0.1 0  0.7 0.1 0  0.75 0.1 0  0.8 0.1 0  0.85 0.1 0  0.9 0.1 0  0.95 0.1 0  1 0.1 0  0 0.15 0  0.05 0.15 0  0.1 0.15 0  0.15 0.15 0  0.2 0.15 0  0.25 0.15 0  0.3 0.15 0  0.35 0.15 0  0.4 0.15 0  0.45 0.15 0  0.5 0.15 0  0.55 0.15 0  0.6 0.15 0  0.65 0.15 0  0.7 0.15 0  0.75 0.15 0  0.8 0.15 0  0.85 0.15 0  0.9 0.15 0  0.95 0.15 0  1 0.15 0  0 0.2 0  0.05 0.2 0  0.1 0.2 0  0.15 0.2 0  0.2 0.2 0  0.25 0.2 0  0.3 0.2 0  0.35 0.2 0  0.4 0.2 0  0.45 0.2 0  0.5 0.2 0  0.55 0.2 0  0.6 0.2 0  0.65 0.2 0  0.7 0.2 0  0.75 0.2 0  0.8 0.2 0  0.85 0.2 0  0.9 0.2 0  0.95 0.2 0  1 0.2 0  0 0.25 0  0.05 0.25 0  0.1 0.25 0  0.15 0.25 0  0.2 0.25 0  0.25 0.25 0  0.3 0.25 0  0.35 0.25 0  0.4 0.25 0  0.45 0.25 0  0.5 0.25 0  0.55 0.25 0  0.6 0.25 0  0.65 0.25 0  0.7 0.25 0  0.75 0.25 0  0.8 0.25 0  0.85 0.25 0  0.9 0.25 0  0.95 0.25 0  1 0.25 0  0 0.3 0  0.05 0.3 0  0.1 0.3 0  0.15 0.3 0  0.2 0.3 0  0.25 0.3 0  0.3 0.3 0  0.35 0.3 0  0.4 0.3 0  0.45 0.3 0  0.5 0.3 0  0.55 0.3 0  0.6 0.3 0  0.65 0.3 0  0.7 0.3 0  0.75 0.3 0  0.8 0.3 0  0.85 0.3 0  0.9 0.3 0  0.95 0.3 0  1 0.3 0  0 0.35 0  0.05 0.35 0  0.1 0.35 0  0.15 0.35 0  0.2 0.35 0  0.25 0.35 0  0.3 0.35 0  0.35 0.35 0  0.4 0.35 0  0.45 0.35 0  0.5 0.35 0  0.55 0.35 0  0.6 0.35 0  0.65 0.35 0  0.7 0.35 0  0.75 0.35 0  0.8 0.35 0  0.85 0.35 0  0.9 0.35 0  0.95 0.35 0  1 0.35 0  0 0.4 0  0.05 0.4 0  0.1 0.4 0  0.15 0.4 0  0.2 0.4 0  0.25 0.4 0  0.3 0.4 0  0.35 0.4 0  0.4 0.4 0  0.45 0.4 0  0.5 0.4 0  0.55 0.4 0  0.6 0.4 0  0.65 0.4 0  0.7 0.4 0  0.75 0.4 0  0.8 0.4 0  0.85 0.4 0  0.9 0.4 0  0.95 0.4 0  1 0.4 0  0 0.45 0  0.05 0.45 0  0.1 0.45 0  0.15 0.45 0  0.2 0.45 0  0.25 0.45 0  0.3 0.45 0  0.35 0.45 0  0.4 0.45 0  0.45 0.45 0  0.5 0.45 0  0.55 0.45 0  0.6 0.45 0  0.65 0.45 0  0.7 0.45 0  0.75 0.45 0  0.8 0.45 0  0.85 0.45 0  0.9 0.45 0  0.95 0.45 0  1 0.45 0  0 0.5 0  0.05 0.5 0  0.1 0.5 0  0.15 0.5 0  0.2 0.5 0  0.25 0.5 0  0.3 0.5 0  0.35 0.5 0  0.4 0.5 0  0.45 0.5 0  0.5 0.5 0  0.55 0.5 0  0.6 0.5 0  0.65 0.5 0  0.7 0.5 0  0.75 0.5 0  0.8 0.5 0  0.85 0.5 0  0.9 0.5 0  0.95 0.5 0  1 0.5 0  0 0.55 0  0.05 0.55 0  0.1 0.55 0  0.15 0.55 0  0.2 0.55 0  0.25 0.55 0  0.3 0.55 0  0.35 0.55 0  0.4 0.55 0  0.45 0.55 0  0.5 0.55 0  0.55 0.55 0  0.6 0.55 0  0.65 0.55 0  0.7 0.55 0  0.75 0.55 0  0.8 0.55 0  0.85 0.55 0  0.9 0.55 0  0.95 0.55 0  1 0.55 0  0 0.6 0  0.05 0.6 0  0.1 0.6 0  0.15 0.6 0  0.2 0.6 0  0.25 0.6 0  0.3 0.6 0  0.35 0.6 0  0.4 0.6 0  0.45 0.6 0  0.5 0.6 0  0.55 0.6 0  0.6 0.6 0  0.65 0.6 0  0.7 0.6 0  0.75 0.6 0  0.8 0.6 0  0.85 0.6 0  0.9 0.6 0  0.95 0.6 0  1 0.6 0  0 0.65 0  0.05 0.65 0  0.1 0.65 0  0.15 0.65 0  0.2 0.65 0  0.25 0.65 0  0.3 0.65 0  0.35 0.65 0  0.4 0.65 0  0.45 0.65 0  0.5 0.65 0  0.55 0.65 0  0.6 0.65 0  0.65 0.65 0  0.7 0.65 0  0.75 0.65 0  0.8 0.65 0  0.85 0.65 0  0.9 0.65 0  0.95 0.65 0  1 0.65 0  0 0.7 0  0.05 0.7 0  0.1 0.7 0  0.15 0.7 0  0.2 0.7 0  0.25 0.7 0  0.3 0.7 0  0.35 0.7 0  0.4 0.7 0  0.45 0.7 0  0.5 0.7 0  0.55 0.7 0  0.6 0.7 0  0.65 0.7 0  0.7 0.7 0  0.75 0.7 0  0.8 0.7 0  0.85 0.7 0  0.9 0.7 0  0.95 0.7 0  1 0.7 0  0 0.75 0  0.05 0.75 0  0.1 0.75 0  0.15 0.75 0  0.2 0.75 0  0.25 0.75 0  0.3 0.75 0  0.35 0.75 0  0.4 0.75 0  0.45 0.75 0  0.5 0.75 0  0.55 0.75 0  0.6 0.75 0  0.65 0.75 0  0.7 0.75 0  0.75 0.75 0  0.8 0.75 0  0.85 0.75 0  0.9 0.75 0  0.95 0.75 0  1 0.75 0  0 0.8 0  0.05 0.8 0  0.1 0.8 0  0.15 0.8 0  0.2 0.8 0  0.25 0.8 0  0.3 0.8 0  0.35 0.8 0  0.4 0.8 0  0.45 0.8 0  0.5 0.8 0  0.55 0.8 0  0.6 0.8 0  0.65 0.8 0  0.7 0.8 0  0.75 0.8 0  0.8 0.8 0  0.85 0.8 0  0.9 0.8 0  0.95 0.8 0  1 0.8 0  0 0.85 0  0.05 0.85 0  0.1 0.85 0  0.15 0.85 0  0.2 0.85 0  0.25 0.85 0  0.3 0.85 0  0.35 0.85 0  0.4 0.85 0  0.45 0.85 0  0.5 0.85 0  0.55 0.85 0  0.6 0.85 0  0.65 0.85 0  0.7 0.85 0  0.75 0.85 0  0.8 0.85 0  0.85 0.85 0  0.9 0.85 0  0.95 0.85 0  1 0.85 0  0 0.9 0  0.05 0.9 0  0.1 0.9 0  0.15 0.9 0  0.2 0.9 0  0.25 0.9 0  0.3 0.9 0  0.35 0.9 0  0.4 0.9 0  0.45 0.9 0  0.5 0.9 0  0.55 0.9 0  0.6 0.9 0  0.65 0.9 0  0.7 0.9 0  0.75 0.9 0  0.8 0.9 0  0.85 0.9 0  0.9 0.9 0  0.95 0.9 0  1 0.9 0  0 0.95 0  0.05 0.95 0  0.1 0.95 0  0.15 0.95 0  0.2 0.95 0  0.25 0.95 0  0.3 0.95 0  0.35 0.95 0  0.4 0.95 0  0.45 0.95 0  0.5 0.95 0  0.55 0.95 0  0.6 0.95 0  0.65 0.95 0  0.7 0.95 0  0.75 0.95 0  0.8 0.95 0  0.85 0.95 0  0.9 0.95 0  0.95 0.95 0  1 0.95 0  0 1 0  0.05 1 0  0.1 1 0  0.15 1 0  0.2 1 0  0.25 1 0  0.3 1 0  0.35 1 0  0.4 1 0  0.45 1 0  0.5 1 0  0.55 1 0  0.6 1 0  0.65 1 0  0.7 1 0  0.75 1 0  0.8 1 0  0.85 1 0  0.9 1 0  0.95 1 0  1 1 0  </DataArray>
</Points>
<Cells>
[...]
<PointData  Scalars="f_25"> 
<DataArray  type="Float64"  Name="f_25"  format="ascii">0.0000000000000000e+00  0.0000000000000000e+00  0.0000000000000000e+00  0.0000000000000000e+00  0.0000000000000000e+00  0.0000000000000000e+00  0.0000000000000000e+00  0.0000000000000000e+00  0.0000000000000000e+00  0.0000000000000000e+00  0.0000000000000000e+00  0.0000000000000000e+00  0.0000000000000000e+00  0.0000000000000000e+00  0.0000000000000000e+00  0.0000000000000000e+00  0.0000000000000000e+00  0.0000000000000000e+00  0.0000000000000000e+00  0.0000000000000000e+00  0.0000000000000000e+00  0.0000000000000000e+00  1.7154867901980305e-04  4.3816326305957633e-04  8.1132548337354844e-04  1.2976058696131357e-03  1.8962714333210448e-03  2.5981115607405943e-03  3.3853264211186397e-03  4.2323539950168427e-03  5.1074086188487647e-03  5.9743953988890507e-03  6.7947714984572727e-03  7.5288143038315779e-03  8.1355548261331061e-03  8.5702260071611174e-03  8.7772748946397805e-03  8.6754630509801277e-03  8.1286194373696823e-03  6.8893897796962417e-03  4.4884294326500550e-03  0.0000000000000000e+00  0.0000000000000000e+00  4.3816326305957633e-04  1.1056760638222492e-03  2.0342238699842825e-03  3.2410534539361715e-03  4.7247641034391117e-03  6.4628623712385553e-03  8.4115886574574368e-03  1.0507949384765576e-02  1.2673465037985264e-02  1.4818822314097447e-02  1.6848360686863649e-02  1.8663027779591730e-02  2.0159921538491391e-02  2.1225524144746141e-02  2.1717813550967024e-02  2.1428971726433342e-02  2.0014306700240327e-02  1.6862347508602528e-02  1.0862734486914360e-02  0.0000000000000000e+00  0.0000000000000000e+00  8.1132548337354887e-04  2.0342238699842825e-03  3.7273710619582841e-03  5.9229702818829688e-03  8.6192153516293276e-03  1.1775997242205509e-02  1.5314601975796736e-02  1.9121320358131473e-02  2.3054124791719015e-02  2.6950957805521605e-02  3.0637679297971558e-02  3.3933156104866941e-02  3.6648029082391356e-02  3.8571892138197443e-02  3.9440318517753876e-02  3.8867481384437276e-02  3.6220820325094528e-02  3.0399793439869958e-02  1.9460102060692618e-02  0.0000000000000000e+00  0.0000000000000000e+00  1.2976058696131359e-03  3.2410534539361715e-03  5.9229702818829706e-03  9.3948184270323584e-03  1.3654749017333255e-02  1.8640683192016821e-02  2.4229667530087699e-02  3.0243358454368510e-02  3.6458322117136184e-02  4.2618864282396265e-02  4.8449291154583490e-02  5.3661585844043826e-02  5.7952988998697039e-02  6.0985211962536832e-02  6.2332090163139335e-02  6.1374280142685742e-02  5.7106800512985556e-02  4.7806562588876077e-02  3.0482194690527178e-02  0.0000000000000000e+00  0.0000000000000000e+00  1.8962714333210452e-03  4.7247641034391099e-03  8.6192153516293241e-03  1.3654749017333250e-02  1.9830055637248281e-02  2.7057080657540731e-02  3.5159741902593994e-02  4.3881487086541528e-02  5.2899822443461093e-02  6.1844519331536847e-02  7.0314992698890993e-02  7.7890988234998806e-02  8.4128558501901762e-02  8.8529426061720387e-02  9.0465052627062281e-02  8.9025677772216399e-02  8.2747784399833824e-02  6.9149669842561434e-02  4.3973914213671118e-02  0.0000000000000000e+00  0.0000000000000000e+00  2.5981115607405952e-03  6.4628623712385570e-03  1.1775997242205502e-02  1.8640683192016831e-02  2.7057080657540731e-02  3.6907928275325547e-02  4.7956285137638006e-02  5.9855250676546401e-02  7.2167186571609074e-02  8.4387992520165170e-02  9.5970287458990486e-02  1.0633746126498991e-01  1.1487763787726338e-01  1.2090143621283111e-01  1.2353855512873645e-01  1.2153396656589707e-01  1.1288317118289010e-01  9.4216225835176096e-02  5.9801999165857635e-02  0.0000000000000000e+00  0.0000000000000000e+00  3.3853264211186427e-03  8.4115886574574455e-03  1.5314601975796739e-02  2.4229667530087717e-02  3.5159741902594008e-02  4.7956285137637999e-02  6.2315666018429999e-02  7.7791012964355033e-02  9.3816408159596631e-02  1.0973771640503382e-01  1.2484206920226879e-01  1.3837552449949736e-01  1.4953463462085226e-01  1.5741109989895552e-01  1.6085755741742847e-01  1.5822484342195864e-01  1.4689478599705716e-01  1.2249624057327788e-01  7.7645643061066139e-02  0.0000000000000000e+00  0.0000000000000000e+00  4.2323539950168470e-03  1.0507949384765588e-02  1.9121320358131483e-02  3.0243358454368527e-02  4.3881487086541562e-02  5.9855250676546450e-02  7.7791012964355019e-02  9.7135779113727283e-02  1.1718642108998548e-01  1.3712728165662227e-01  1.5606622060646019e-01  1.7305598130549163e-01  1.8708302649011843e-01  1.9699794339101109e-01  2.0134799579615770e-01  1.9805103931210929e-01  1.8381852044172761e-01  1.5319198832403561e-01  9.7002556253362793e-02  0.0000000000000000e+00  0.0000000000000000e+00  5.1074086188487673e-03  1.2673465037985275e-02  2.3054124791719047e-02  3.6458322117136219e-02  5.2899822443461128e-02  7.2167186571609115e-02  9.3816408159596645e-02  1.1718642108998550e-01  1.4143317523564303e-01  1.6557393898947600e-01  1.8852988511405619e-01  2.0915109314751681e-01  2.2620238146218283e-01  2.3827879370737154e-01  2.4360360417888957e-01  2.3963665068763174e-01  2.2238405188746121e-01  1.8525011050618112e-01  1.1720874549915113e-01  0.0000000000000000e+00  0.0000000000000000e+00  5.9743953988890550e-03  1.4818822314097464e-02  2.6950957805521633e-02  4.2618864282396300e-02  6.1844519331536882e-02  8.4387992520165170e-02  1.0973771640503384e-01  1.3712728165662225e-01  1.6557393898947600e-01  1.9392920663627009e-01  2.2092766722333004e-01  2.4521535091376059e-01  2.6533237681953881e-01  2.7961341106658399e-01  2.8595116084024852e-01  2.8133949704099198e-01  2.6107101042039987e-01  2.1740695516042821e-01  1.3746621112147256e-01  0.0000000000000000e+00  0.0000000000000000e+00  6.7947714984572779e-03  1.6848360686863673e-02  3.0637679297971600e-02  4.8449291154583532e-02  7.0314992698891049e-02  9.5970287458990472e-02  1.2484206920226879e-01  1.5606622060646005e-01  1.8852988511405613e-01  2.2092766722333002e-01  2.5181599650665509e-01  2.7964444658136994e-01  3.0273510075145194e-01  3.1916850230287719e-01  3.2651418799494719e-01  3.2131192609322579e-01  2.9816348356414657e-01  2.4823212422111765e-01  1.5686908324706517e-01  0.0000000000000000e+00  0.0000000000000000e+00  7.5288143038315823e-03  1.8663027779591751e-02  3.3933156104866968e-02  5.3661585844043840e-02  7.7890988234998793e-02  1.0633746126498987e-01  1.3837552449949728e-01  1.7305598130549152e-01  2.0915109314751662e-01  2.4521535091376040e-01  2.7964444658136967e-01  3.1070889234464111e-01  3.3653014174769724e-01  3.5495324076466150e-01  3.6324761375356690e-01  3.5753301160051837e-01  3.3177773969004543e-01  2.7614927980527243e-01  1.7441489099664848e-01  0.0000000000000000e+00  0.0000000000000000e+00  8.1355548261331130e-03  2.0159921538491412e-02  3.6648029082391391e-02  5.7952988998697039e-02  8.4128558501901721e-02  1.1487763787726329e-01  1.4953463462085212e-01  1.8708302649011829e-01  2.2620238146218269e-01  2.6533237681953875e-01  3.0273510075145188e-01  3.3653014174769730e-01  3.6466762746842019e-01  3.8478953856557763e-01  3.9390579628142747e-01  3.8777517281122514e-01  3.5982891230890074e-01  2.9940571812986599e-01  1.8898292221698748e-01  0.0000000000000000e+00  0.0000000000000000e+00  8.5702260071611244e-03  2.1225524144746162e-02  3.8571892138197478e-02  6.0985211962536839e-02  8.8529426061720345e-02  1.2090143621283103e-01  1.5741109989895541e-01  1.9699794339101098e-01  2.3827879370737151e-01  2.7961341106658399e-01  3.1916850230287702e-01  3.5495324076466156e-01  3.8478953856557790e-01  4.0616485015268600e-01  4.1589073522881614e-01  4.0945326639353979e-01  3.7988893578493615e-01  3.1595149752003338e-01  1.9925518897350014e-01  0.0000000000000000e+00  0.0000000000000000e+00  8.7772748946397892e-03  2.1717813550967038e-02  3.9440318517753911e-02  6.2332090163139363e-02  9.0465052627062295e-02  1.2353855512873650e-01  1.6085755741742838e-01  2.0134799579615770e-01  2.4360360417888974e-01  2.8595116084024852e-01  3.2651418799494697e-01  3.6324761375356696e-01  3.9390579628142758e-01  4.1589073522881637e-01  4.2590294952624580e-01  4.1928129664242464e-01  3.8886813210308280e-01  3.2317387010075066e-01  2.0354718398999871e-01  0.0000000000000000e+00  0.0000000000000000e+00  8.6754630509801312e-03  2.1428971726433349e-02  3.8867481384437297e-02  6.1374280142685742e-02  8.9025677772216358e-02  1.2153396656589702e-01  1.5822484342195858e-01  1.9805103931210924e-01  2.3963665068763179e-01  2.8133949704099198e-01  3.2131192609322567e-01  3.5753301160051837e-01  3.8777517281122520e-01  4.0945326639354018e-01  4.1928129664242525e-01  4.1262880966200088e-01  3.8242562194404633e-01  3.1741425519850291e-01  1.9950744791578714e-01  0.0000000000000000e+00  0.0000000000000000e+00  8.1286194373696805e-03  2.0014306700240323e-02  3.6220820325094522e-02  5.7106800512985507e-02  8.2747784399833754e-02  1.1288317118288999e-01  1.4689478599705702e-01  1.8381852044172745e-01  2.2238405188746113e-01  2.6107101042039971e-01  2.9816348356414640e-01  3.3177773969004531e-01  3.5982891230890068e-01  3.7988893578493627e-01  3.8886813210308296e-01  3.8242562194404645e-01  3.5398173983713438e-01  2.9317923692906966e-01  1.8364546668996470e-01  0.0000000000000000e+00  0.0000000000000000e+00  6.8893897796962391e-03  1.6862347508602517e-02  3.0399793439869940e-02  4.7806562588876014e-02  6.9149669842561365e-02  9.4216225835175985e-02  1.2249624057327781e-01  1.5319198832403547e-01  1.8525011050618101e-01  2.1740695516042813e-01  2.4823212422111754e-01  2.7614927980527243e-01  2.9940571812986611e-01  3.1595149752003349e-01  3.2317387010075077e-01  3.1741425519850297e-01  2.9317923692906966e-01  2.4196357320655434e-01  1.5068342758495909e-01  0.0000000000000000e+00  0.0000000000000000e+00  4.4884294326500524e-03  1.0862734486914351e-02  1.9460102060692597e-02  3.0482194690527140e-02  4.3973914213671049e-02  5.9801999165857558e-02  7.7645643061066069e-02  9.7002556253362737e-02  1.1720874549915106e-01  1.3746621112147256e-01  1.5686908324706525e-01  1.7441489099664850e-01  1.8898292221698756e-01  1.9925518897350022e-01  2.0354718398999871e-01  1.9950744791578717e-01  1.8364546668996468e-01  1.5068342758495912e-01  9.2880269440709914e-02  0.0000000000000000e+00  0.0000000000000000e+00  0.0000000000000000e+00  0.0000000000000000e+00  0.0000000000000000e+00  0.0000000000000000e+00  0.0000000000000000e+00  0.0000000000000000e+00  0.0000000000000000e+00  0.0000000000000000e+00  0.0000000000000000e+00  0.0000000000000000e+00  0.0000000000000000e+00  0.0000000000000000e+00  0.0000000000000000e+00  0.0000000000000000e+00  0.0000000000000000e+00  0.0000000000000000e+00  0.0000000000000000e+00  0.0000000000000000e+00  0.0000000000000000e+00  0.0000000000000000e+00  </DataArray> 
</PointData> 
</Piece>
</UnstructuredGrid>
</VTKFile>