<?xml version="1.0"?>
<VTKFile type="UnstructuredGrid"  version="0.1"  >
<UnstructuredGrid>
<Piece  NumberOfPoints="484" NumberOfCells="844">
<Points>
<DataArray  type="Float64"  NumberOfComponents="3"  format="ascii">0 1 0  0 0 0  2 0 0  2 1 0  1.78374517251019 0.597409840761405 0  1.8 0.5 0  1.78374517251019 0.4025901592385949 0  1.736742152818918 0.3157361861930998 0  1.664084447436728 0.2488500565212414 0  1.57364564614224 0.2091799202182009 0  1.4752261963583 0.2010246520979991 0  1.379491372604109 0.2252680020034827 0  1.296815528512278 0.2792828267980605 0  1.236157874638053 0.3572157820888781 0  1.204091608979183 0.4506216229157799 0  1.204091608979183 0.5493783770842202 0  1.236157874638053 0.6427842179111221 0  1.296815528512278 0.7207171732019395 0  1.379491372604109 0.7747319979965173 0  1.4752261963583 0.798975347902001 0  1.57364564614224 0.790820079781799 0  1.664084447436728 0.7511499434787585 0  1.736742152818918 0.6842638138069004 0  1 0 0  1 1 0  2 0.5 0  1.5 0 0  1.5 1 0  0 0.5 0  0.5 0 0  0.5 1 0  0.5 0.5 0  0.25 0 0  0 0.25 0  0.25 1 0  0 0.75 0  0.75 0 0  0.8427491755246432 0.6572508244753567 0  0.875 0.3175300405945146 0  0.2916666666666666 0.7083333333333334 0  0.25 0.375 0  0.610247075176929 0.25 0  0.5416666666666666 0.75 0  0.75 1 0  1.25 1 0  1.75 0 0  2 0.75 0  2 0.25 0  1.25 0 0  1.75 1 0  0.375 0.1875 0  1.069495412948943 0.2107268018903497 0  1.043953358214098 0.7723871654579093 0  0.7027473652812255 0.4401003809181993 0  0.9926636277338787 0.5 0  0.18359375 0.1953125 0  0.8672518169507546 0.8478050486602485 0  0.1825980392156863 0.5526960784313726 0  0.375 0.8690476190476191 0  0.1614583333333333 0.8385416666666667 0  1.838152029260268 0.1618479707397315 0  1.838152029260268 0.8381520292602684 0  0.6412239774629146 0.6049348926450698 0  0.908015859390367 0.1471581891158557 0  0.6935429486943157 0.8352419871991814 0  0.4620194896849508 0.3339422041260197 0  0.3386260301221938 0.5102479397556123 0  0.7621341763941456 0.207273156180265 0  1.190810493169511 0.8465129988005128 0  1.020856530275323 0.3526481456704165 0  0.849075543720454 0.4634191137771964 0  0.431547619047619 0.6398809523809523 0  0.1362784921584264 0.6929750044954186 0  0.625 0 0  1.211817740048463 0.1499656054283927 0  0.1209635416666667 0.3205729166666667 0  0.9847249395404201 0.6425172705623372 0  1.625 1 0  1.625 0 0  0.512541963799791 0.1437779758665274 0  1.872282141090511 0.7014690197214168 0  1.872282141090511 0.2985309802785833 0  0.125 0 0  0 0.125 0  1.6875 0.8823219300183902 0  1.711427764122643 0.1259391373285045 0  0.5857007603431403 0.379498796222937 0  1.375 0 0  1.375 1 0  1.125 0 0  0.625 1 0  0.5625 0.8819444444444444 0  0.7610741504680187 0.5575659807793669 0  1.110450875748598 0.6337323832732733 0  0.6577022951304317 0.1273651155880749 0  0.875 0 0  2 0.125 0  1.875 0 0  0 0.625 0  0 0.875 0  0.375 1 0  0.875 1 0  0.375 0 0  0.125 1 0  2 0.375 0  2 0.625 0  2 0.875 0  1.875 1 0  1.125 1 0  0 0.375 0  1.0625 0.8940188709769393 0  0.7114206267051376 0.3183251991255057 0  0.1475299223289482 0.4377632092133468 0  1.3125 0.8877418109007456 0  0.9234752109127659 0.7437230339863174 0  0.7221107865264482 0.7076560080572618 0  0.4223710317460317 0.7591765873015873 0  1.9 0.4375 0  1.897595639002155 0.5663469775965522 0  1.152785554711046 0.7393088737226952 0  0.3461782929634525 0.3037021953089684 0  0.3125 0.09375 0  1.401781725111504 0.1121448037276411 0  1.424245257886164 0.8990549890503938 0  1.1294483650248 0.3105690707738273 0  1.0625 0.09621099564344943 0  0.9623305291843423 0.2460686178531891 0  1.5625 0.9044501632644213 0  1.5625 0.0955498367355786 0  0.9003858142570526 0.5621128987007222 0  1.098101493637888 0.5258714973841982 0  0.8036076548228382 0.1008534602376067 0  0.2633928571428572 0.8876488095238095 0  0.414678367247429 0.4321423233700297 0  0.5396363551523156 0.6419112638953035 0  0.6056081230888789 0.484382863312224 0  1.106567824229797 0.4126810507727962 0  0.1875 0.0876953125 0  0.9383159712027753 0.413228628128575 0  0.3318231182251389 0.6132441360004393 0  0.9572003535518292 0.9033403130166413 0  0.8139158579157988 0.7578108536231927 0  0.7935037642338374 0.3782960990749717 0  0.4375 0.07788798159182841 0  0.4651801166362056 0.2329884415152182 0  0.1001277561102753 0.1384033937676143 0  0.08086590340834321 0.5625 0  0.2807001372068105 0.2257861740668578 0  1.758200755851936 0.7804807893682326 0  1.758200755851936 0.2195192106317675 0  1.299092295317702 0.09234276509693498 0  0.7762437823864172 0.8989551585519843 0  0.2393092484544073 0.4725760570540382 0  0.2196974308038731 0.6427328796636128 0  0.4666005291005291 0.9067460317460317 0  0.2102535460314111 0.2890572018230581 0  0.6382336924197988 0.755866356365922 0  1.9291108126569 0.1875 0  1.906843116591586 0.09236830990344484 0  1.777416823280135 0.9100024283712178 0  1.9138312885794 0.7844466473254866 0  1.8125 0.0708891873430996 0  0.2461716367581515 0.7930466367581516 0  0.07073252688172042 0.8125 0  0.0924753097241701 0.9078102849914793 0  1.297145258384448 0.1842975012698211 0  0.09819481312894854 0.2309007919811409 0  0.5788095038920291 0.07974076399829848 0  0.6875 0.9298367502372836 0  1.159540395319097 0.224578200320709 0  0.3363453352414483 0.7869010181686933 0  0.1875 0.9355758238725954 0  1.907485449900501 0.9074854499005005 0  0.3365978736998687 0.3912980497953831 0  0.4965491124765318 0.8247407834101382 0  0.9946582774249307 0.1639483681638828 0  0.9375 0.06326048615849841 0  0.8756881111497786 0.2292784388051621 0  1.1875 0.06393061008153887 0  0.6821274179621576 0.523552776852952 0  0.0625 0 0  0.5677475274357409 0.5611055692012266 0  0.5431475737312214 0.3043571416506436 0  0.4998088888478967 0.412671387743341 0  1.271923827441172 0.8073033768729405 0  1.144079787833831 0.9173285690114767 0  1.234477051037206 0.9178299606103488 0  1.11568375451864 0.8128144767256547 0  0.2474314797351809 0.1437501713946527 0  0.7930672890878172 0.2885047831775271 0  0.9449597450104197 0.8225551103442099 0  1.043994947280002 0.5867037567637329 0  0.2661087310150958 0.5516763929432742 0  0.4198281682230962 0.5132360697563596 0  1.483727637086004 0.1192148509571048 0  1.644440015314982 0.1707099329264654 0  1.124945028809584 0.1498679909491655 0  0.08012249108436301 0.3914377241544016 0  0.07901604382675644 0.4813290943875176 0  0.3285590277777778 0.9345238095238095 0  0.6799566840338123 0.206475911465158 0  0.7241673677530416 0.0784051173135977 0  0.4845379644176867 0.6970096546299323 0  0.366380574163789 0.6838615459620285 0  0.4867321497264777 0.5801966852258245 0  0.7640395474301764 0.6384382550415005 0  1.083199256901168 0.70593594575104 0  1.217075462191161 0.2797909931313028 0  1.643211298668676 0.0801279947560528 0  0.2105033408829201 0.721840481232267 0  0.8507270715979697 0.9249410208158915 0  0.07704872765442947 0.6411254848194414 0  0.6507773567498768 0.6806195200803355 0  0.9470733641222151 0.3386397658003765 0  1.030016179406472 0.4307736739285035 0  1.03199791498579 0.2771711273800254 0  1.4375 0 0  1.922832672853832 0.641006945484222 0  1.921673956988018 0.3609283311808291 0  0.9187936842128259 0.4898579303104234 0  0.8665902213579503 0.3912835464622645 0  0.7761386570796214 0.4503340206716026 0  0.132433467016868 0.7686012208749837 0  0.06518654876787751 0.7144311380370932 0  0.1487479641258986 0.6193056461319167 0  0.8279502161691989 0.1716314414649491 0  0.6175572280885101 0.8292314698563852 0  0.5873000072503324 0.1548333596669089 0  0.7698980460572555 0.8216618727332811 0  1.617763733598075 0.8525091591744496 0  0.5389877149849908 0.2306291033910286 0  1.849558996495297 0.6311079473036412 0  0.9728538111582382 0.5705339341326484 0  1.227062399538353 0.7475356453203694 0  0 0.1875 0  0.443314335737747 0.1642024576913928 0  1.853040416346226 0.3828545874152978 0  0.09375 0.06582068612416771 0  0.9121142119372541 0.6342459506530548 0  0.9934916381906801 0.7169599264150737 0  0.5082308517183852 0.07301033393845233 0  1.172481853825469 0.3875628783986241 0  1.868941529029428 0.226762445294308 0  1.844682638217621 0.7671800450043913 0  0.182919661283971 0.3538607419778741 0  0.05848414090509828 0.2887104402582971 0  0.6353884404914405 0.3218412683149566 0  0.8315333923454293 0.5352240005881821 0  0.8672217446539785 0.07018932011534394 0  1.80101311233155 0.279568722103581 0  0.3976221841274197 0.2547864263727552 0  1.492394819430708 0.9268095616423531 0  1.4375 1 0  0.4002480551263502 0.3646742808612027 0  1.015481490182062 0.8389584788939451 0  1.509525788708048 0.8594387943586543 0  0.2766954419783539 0.3104917240985169 0  0.8125 0 0  1.805618820464136 0.6841482116329501 0  2 0.3125 0  1.930663945015785 0.2598514654979807 0  1.938182498840598 0.7203621302075108 0  0.6760366889878674 0.3770014904269648 0  0.3126876338191231 0.1613332441205846 0  1.1875 1 0  0.7493690982952937 0.1410071076122945 0  0.6160903533663544 0.9291449763223876 0  0.5625 1 0  0.5258727283183805 0.9381254313319531 0  1.6875 0 0  1.696421098492074 0.8130534698261189 0  1.718577535532562 0.9412525626128655 0  1.631092039627162 0.9277993206216887 0  0.3942649591936683 0.5794663232701421 0  1.8125 1 0  1.84298398567314 0.9362797123674823 0  0 0.4375 0  1.427358784481205 0.7868536729492591 0  1.373042687890315 0.8472701648767201 0  1.745050180582884 0.06736044428808222 0  1.778877583539759 0.1294678803835219 0  0.6425024682324467 0.06338694444594203 0  1.9375 0 0  2 0.0625 0  0.4016108198193036 0.9345238095238095 0  1.753952463834889 0.8472973587166729 0  2 0.9375 0  1.9375 1 0  0.7022683878270706 0.770204395751818 0  0 0.9375 0  0.0625 1 0  1.139607537040982 0.4720641816945025 0  1.224499120027803 0.2144711882194641 0  0.7863124194829649 0.699238164101231 0  0.4285125855365842 0.8269720812914013 0  0.5834046093203372 0.6951525685470986 0  1.003603681286273 0.06606493071244557 0  1.126304287524467 0.08512142223151367 0  0.7085525522902785 0.5999823290361459 0  1.92891531307153 0.5024854990855518 0  1.864281148433066 0.510397690476507 0  1.7918725
[...]
<PointData  Scalars="f_30"> 
<DataArray  type="Float64"  Name="f_30"  format="ascii">0.0000000000000000e+00  0.0000000000000000e+00  0.0000000000000000e+00  0.0000000000000000e+00  0.0000000000000000e+00  0.0000000000000000e+00  0.0000000000000000e+00  0.0000000000000000e+00  0.0000000000000000e+00  0.0000000000000000e+00  0.0000000000000000e+00  0.0000000000000000e+00  0.0000000000000000e+00  0.0000000000000000e+00  0.0000000000000000e+00  0.0000000000000000e+00  0.0000000000000000e+00  0.0000000000000000e+00  0.0000000000000000e+00  0.0000000000000000e+00  0.0000000000000000e+00  0.0000000000000000e+00  0.0000000000000000e+00  0.0000000000000000e+00  0.0000000000000000e+00  0.0000000000000000e+00  0.0000000000000000e+00  0.0000000000000000e+00  0.0000000000000000e+00  0.0000000000000000e+00  0.0000000000000000e+00  1.4096378879549193e-01  0.0000000000000000e+00  0.0000000000000000e+00  0.0000000000000000e+00  0.0000000000000000e+00  0.0000000000000000e+00  5.3811504133011967e-01  4.8517279156355281e-01  5.5222829520229222e-03  2.2839352641369822e-04  2.4501109794518802e-01  1.4771637395494111e-01  0.0000000000000000e+00  0.0000000000000000e+00  0.0000000000000000e+00  0.0000000000000000e+00  0.0000000000000000e+00  0.0000000000000000e+00  0.0000000000000000e+00  1.2895641244074128e-02  -1.7503298254366934e-02  8.4029159363526534e-02  5.2355860953683730e-01  2.9225936851556283e-01  -1.2455002984114325e-04  2.7214652950868262e-01  4.6228978888281487e-05  1.0418561234543947e-02  -1.1157333463362903e-04  9.0252044957831123e-02  9.5676230116244501e-02  3.9211753908949309e-01  2.3454838999828770e-01  2.5570607443481247e-01  7.9000008114092621e-02  1.2109478219356515e-02  3.6629443291097263e-01  -1.6490802149845116e-01  1.5858425979965002e-01  6.0259526110116690e-01  5.6826511031255036e-02  3.3578839412714488e-04  0.0000000000000000e+00  -1.8009538929719821e-01  -4.6974361414586688e-05  2.8274578280389007e-01  0.0000000000000000e+00  0.0000000000000000e+00  6.9607149147392480e-02  9.1710513248241983e-03  8.4681228756169642e-03  0.0000000000000000e+00  0.0000000000000000e+00  8.1864433036106091e-02  8.2421025581608631e-02  2.7749935253334157e-01  0.0000000000000000e+00  0.0000000000000000e+00  0.0000000000000000e+00  0.0000000000000000e+00  9.0472392777681113e-02  5.9485952878002013e-01  -6.8980409291178893e-02  1.7515305457228778e-01  0.0000000000000000e+00  0.0000000000000000e+00  0.0000000000000000e+00  0.0000000000000000e+00  0.0000000000000000e+00  0.0000000000000000e+00  0.0000000000000000e+00  0.0000000000000000e+00  0.0000000000000000e+00  0.0000000000000000e+00  0.0000000000000000e+00  0.0000000000000000e+00  0.0000000000000000e+00  0.0000000000000000e+00  0.0000000000000000e+00  7.0376110964364023e-03  4.5474156903534274e-01  -3.5361183139925624e-05  -2.0184410522139845e-01  3.4725370965131030e-01  4.4321839166246774e-01  3.7998507381079148e-02  1.9801648478680925e-03  1.2305540907905420e-03  -1.2688648233395169e-01  1.1143355570949549e-02  1.0106190454513952e-03  -1.9127672523240902e-01  -1.7431072314384599e-01  -5.8739587037031089e-02  1.8160126495303294e-02  2.6562131680583878e-01  -9.1646799165281748e-03  -1.3179970943904943e-02  5.2247220408601047e-01  -2.1876796962549294e-02  1.9381682732629124e-01  5.8613720405530784e-04  4.9875404508984485e-02  1.8741893338704738e-01  3.3777384854401410e-01  -4.3777367382890571e-02  -1.3165179600990940e-04  4.2665404186588329e-01  1.1300737089974673e-02  1.2428372818518831e-01  4.2685274756914710e-01  5.7475621846465830e-01  1.3229503239876768e-02  6.1069711036050821e-02  -2.8487329248693759e-05  7.1374777960172395e-05  2.1102256145339071e-03  2.5424998087566545e-02  3.1163055850235533e-02  -1.6696421465053596e-01  1.9248789416768461e-01  1.5339261569278233e-03  1.2216166033856730e-03  2.6774369926869521e-02  5.0840325369025830e-04  2.8538039376843771e-01  3.4549800792515260e-02  7.4729777050085405e-02  9.4242433434023970e-02  2.4767187502433646e-02  8.4756204263823826e-02  2.7824120474981474e-04  -1.1809890741270409e-04  -3.6567600526419435e-05  -4.7713700405502207e-01  2.8888521096731122e-05  6.8074895098674371e-02  1.1180492308708255e-01  -1.3074704087110028e-01  5.1961565986373241e-03  -3.4097646420196853e-04  7.4076899387119158e-02  1.2395700308885359e-02  7.3369472891139917e-02  1.4015517248654397e-01  8.6260417837896591e-02  3.7920676942509918e-01  -8.3255364943851773e-02  4.9668209400754393e-01  0.0000000000000000e+00  2.5613096676292357e-01  1.7195711315058773e-01  1.3693967018149378e-01  -4.2513820650457634e-01  -7.6327949548858812e-02  -1.2897266864648838e-01  -1.3085377669718690e-01  3.3002085565860608e-04  4.9020092224343986e-01  2.2815647802692723e-01  1.0271381202208349e-01  1.9852521501906536e-03  5.0845350234545825e-02  -1.2516274438274227e-01  3.3130546529742226e-02  -1.0972872639157270e-01  1.4355256175971315e-04  -3.4019463187119689e-05  1.7974812352714081e-03  2.9852704583743578e-01  1.3783904644070957e-01  9.4601372244718346e-02  1.6990976190425659e-02  1.1693782440259104e-01  5.5433231267475225e-01  -8.6393034986317299e-02  -5.7874033007115255e-01  5.0590817263012608e-02  -4.8465811804388826e-04  1.3896621911500376e-01  2.3271640738808575e-04  3.6615645184226259e-01  3.7615152916546307e-01  1.1301644056655787e-01  1.1653644879374637e-01  0.0000000000000000e+00  -1.5937458315186285e-02  -1.4677627065271861e-02  4.9579475079615332e-01  5.5837339453933532e-01  6.1009109655800609e-01  2.3083900975068823e-04  3.1015510415401873e-05  5.9076068545916589e-07  3.1912307473566459e-01  1.8683232577787032e-01  1.4022155361327193e-01  3.2654377494252224e-01  2.4068567337605946e-02  1.3678144733005668e-01  -5.7191947478962253e-03  3.4539848855760019e-01  -5.5984481436157552e-01  0.0000000000000000e+00  3.4219277940648364e-02  -2.5234143889700414e-03  -2.0236294158967584e-05  4.6816219728161745e-01  2.3961954016087267e-01  3.6033012616972337e-02  -5.5109547574002604e-01  4.1855624211192786e-02  2.8536761143666125e-02  4.1072092280687442e-04  1.5325923155774693e-05  3.4212027571685294e-01  6.2345572104118085e-01  1.3011474180291910e-01  2.5977638992728909e-03  2.5644548104724059e-02  -6.9997862871925762e-02  0.0000000000000000e+00  3.5719045220488459e-02  9.5299732781924787e-02  -7.9510757373792526e-02  1.3984100652902310e-03  0.0000000000000000e+00  -9.2845017163584766e-03  0.0000000000000000e+00  2.4433190510357002e-03  -1.1861822746765812e-02  4.4737536149030549e-01  2.8455424095880297e-03  0.0000000000000000e+00  2.5680306882133735e-01  7.7908057323216318e-02  0.0000000000000000e+00  3.3410383140849556e-02  0.0000000000000000e+00  4.6198845597981694e-02  6.8169174982117331e-02  4.3856841788325718e-02  3.1224469569206981e-02  0.0000000000000000e+00  7.3478763341962544e-02  0.0000000000000000e+00  0.0000000000000000e+00  -3.2401013285530467e-01  7.7199574963736459e-02  8.8331851477561646e-02  8.0908649427254078e-02  0.0000000000000000e+00  0.0000000000000000e+00  8.2702363708220972e-03  7.7647071484103866e-02  0.0000000000000000e+00  0.0000000000000000e+00  3.4965707742164409e-01  0.0000000000000000e+00  0.0000000000000000e+00  -3.1618745296443496e-01  -4.3679497982788446e-01  5.0738231272453571e-01  2.9523558451357710e-02  2.3816191482497009e-01  4.6322746037560557e-02  -5.0758772489493766e-02  5.1209642381662301e-01  -6.0691760398844654e-03  1.6500977141770378e-04  0.0000000000000000e+00  0.0000000000000000e+00  -1.1190982074276450e-01  3.9886759817924539e-01  -8.2958073993356987e-02  2.3868327329399536e-01  -5.3948183215677392e-01  0.0000000000000000e+00  -3.4001195218013469e-01  0.0000000000000000e+00  7.0763674793474455e-03  -1.7091889553453896e-04  8.5462272024486498e-03  6.9246698049181932e-02  -3.2725558019191558e-01  -5.8142700243716805e-01  1.8849686656983804e-04  0.0000000000000000e+00  1.8746699936012052e-04  0.0000000000000000e+00  0.0000000000000000e+00  0.0000000000000000e+00  0.0000000000000000e+00  0.0000000000000000e+00  0.0000000000000000e+00  0.0000000000000000e+00  0.0000000000000000e+00  0.0000000000000000e+00  0.0000000000000000e+00  0.0000000000000000e+00  0.0000000000000000e+00  0.0000000000000000e+00  0.0000000000000000e+00  0.0000000000000000e+00  0.0000000000000000e+00  0.0000000000000000e+00  0.0000000000000000e+00  0.0000000000000000e+00  0.0000000000000000e+00  0.0000000000000000e+00  0.0000000000000000e+00  0.0000000000000000e+00  0.0000000000000000e+00  0.0000000000000000e+00  0.0000000000000000e+00  0.0000000000000000e+00  0.0000000000000000e+00  4.8015177617198278e-02  1.5438369509945071e-03  0.0000000000000000e+00  3.6161564794012696e-02  3.5300008820103684e-01  5.8949987645010526e-01  3.9310697988708190e-02  0.0000000000000000e+00  4.2933712381547534e-01  1.6033053100762690e-01  1.8430601327314679e-04  1.3144802710874159e-01  7.9411433826146131e-03  3.7562581967144792e-01  8.9214659892863620e-04  4.6343986745737434e-02  8.1766162023162545e-02  -9.4242801358561223e-02  -4.1669216823470426e-02  5.7366137940427242e-01  0.0000000000000000e+00  3.2715839975971106e-01  4.5095832092850002e-01  5.3159562948317718e-01  5.9880805095125465e-03  -3.1759286142288200e-02  -2.2070914413949733e-01  1.7205895804986440e-01  -4.6863138402519949e-01  1.5432211297589163e-02  -1.0254484116463657e-01  3.0097159170725511e-04  1.9803601979819568e-01  -8.3746297395301192e-03  -3.5161959678656714e-02  2.0976943872063479e-03  1.2037269450348405e-01  4.1548855612887192e-01  -4.0907460598542424e-03  -1.9166374473234699e-01  -1.4981657425508640e-01  8.4379197967133820e-02  1.3420936595721860e-02  9.3483853819896212e-02  9.5923104245916879e-03  -9.0616108559335523e-02  -1.7524191888889351e-01  -1.0408574563297812e-01  -8.9361973044327228e-05  3.1071630139129885e-04  2.8292069064470221e-01  3.8000686053131194e-01  1.4187672059638112e-01  -4.1001455204201742e-01  4.1718977812285235e-01  -1.9541189105606646e-01  1.9520740981504379e-02  1.2827869259332537e-02  -8.9567194794436950e-02  -1.7915433061422935e-05  0.0000000000000000e+00  2.8148038611632616e-02  4.8949034797021674e-06  7.3576515303263423e-02  4.1984820680157664e-01  -1.3337904248353205e-02  3.6058024465133891e-02  -1.2917005530285412e-02  -1.8859240558135646e-04  8.3871839334628398e-02  -1.1030996674687152e-03  2.2631051906629715e-01  9.7561710148381345e-02  4.6356002436306082e-01  -2.5426937586974629e-02  -6.6775952748894557e-02  1.1019254607285098e-01  2.8819718712512676e-01  1.7605372496682248e-01  6.1882869776753180e-01  -4.5102235857535884e-05  2.3313574309518403e-06  2.8444052971169980e-03  0.0000000000000000e+00  -2.3982076864982578e-05  8.8796405894087133e-02  6.7288142926129292e-03  -1.3211887099212674e-01  4.7342467970072485e-03  -1.2964235746452460e-03  2.6198477340563446e-03  2.3244258085463410e-01  1.1396152596064879e-03  -4.8300173438912972e-03  2.1666098087945757e-01  -2.4421763822366396e-01  1.0851032032560516e-01  0.0000000000000000e+00  4.6604952363373327e-05  2.6035974066746448e-01  6.1986574262692100e-02  3.5301090432446575e-01  -1.8650962973602389e-01  -8.7605684931108360e-02  2.6943098415452116e-01  2.4266191625068323e-01  3.6183684526509530e-01  -9.7881862409705325e-02  3.2698471556590683e-02  -5.4279128944581112e-01  5.5027138856346458e-01  8.1099789137356465e-03  2.7513500716641267e-02  1.3992686396551168e-02  4.4625561233369337e-01  4.6081094172560094e-01  6.0475230802084966e-02  5.2969092851938415e-01  3.3043929019370927e-01  2.9133114215434502e-01  -1.8136486124280198e-06  -2.0639526484583753e-05  5.2376494157402642e-01  -1.1058292264648212e-04  -7.6192316897703741e-02  1.1808437582090854e-04  5.4444502537592043e-01  5.9951828392854267e-01  3.2450833190195665e-04  -8.7748747098542051e-03  -2.1157555343752035e-02  -3.8095205848380300e-05  -1.4281158485444665e-06  6.6362409685395807e-02  3.1279695165026447e-02  2.4682587834654410e-03  </DataArray> 
</PointData> 
</Piece>
</UnstructuredGrid>
</VTKFile>