<?xml version="1.0"?>
<VTKFile type="UnstructuredGrid"  version="0.1"  >
<UnstructuredGrid>
<Piece  NumberOfPoints="441" NumberOfCells="800">
<Points>
<DataArray  type="Float64"  NumberOfComponents="3"  format="ascii">0 0 0  0.05 0 0  0.1 0 0  0.15 0 0  0.2 0 0  0.25 0 0  0.3 0 0  0.35 0 0  0.4 0 0  0.45 0 0  0.5 0 0  0.55 0 0  0.6 0 0  0.65 0 0  0.7 0 0  0.75 0 0  0.8 0 0  0.85 0 0  0.9 0 0  0.95 0 0  1 0 0  0 0.05 0  0.05 0.05 0  0.1 0.05 0  0.15 0.05 0  0.2 0.05 0  0.25 0.05 0  0.3 0.05 0  0.35 0.05 0  0.4 0.05 0  0.45 0.05 0  0.5 0.05 0  0.55 0.05 0  0.6 0.05 0  0.65 0.05 0  0.7 0.05 0  0.75 0.05 0  0.8 0.05 0  0.85 0.05 0  0.9 0.05 0  0.95 0.05 0  1 0.05 0  0 0.1 0  0.05 0.1 0  0.1 0.1 0  0.15 0.1 0  0.2 0.1 0  0.25 0.1 0  0.3 0.1 0  0.35 0.1 0  0.4 0.1 0  0.45 0.1 0  0.5 0.1 0  0.55 0.1 0  0.6 0.1 0  0.65 0.1 0  0.7 0.1 0  0.75 0.1 0  0.8 0.1 0  0.85 0.1 0  0.9 0.1 0  0.95 0.1 0  1 0.1 0  0 0.15 0  0.05 0.15 0  0.1 0.15 0  0.15 0.15 0  0.2 0.15 0  0.25 0.15 0  0.3 0.15 0  0.35 0.15 0  0.4 0.15 0  0.45 0.15 0  0.5 0.15 0  0.55 0.15 0  0.6 0.15 0  0.65 0.15 0  0.7 0.15 0  0.75 0.15 0  0.8 0.15 0  0.85 0.15 0  0.9 0.15 0  0.95 0.15 0  1 0.15 0  0 0.2 0  0.05 0.2 0  0.1 0.2 0  0.15 0.2 0  0.2 0.2 0  0.25 0.2 0  0.3 0.2 0  0.35 0.2 0  0.4 0.2 0  0.45 0.2 0  0.5 0.2 0  0.55 0.2 0  0.6 0.2 0  0.65 0.2 0  0.7 0.2 0  0.75 0.2 0  0.8 0.2 0  0.85 0.2 0  0.9 0.2 0  0.95 0.2 0  1 0.2 0  0 0.25 0  0.05 0.25 0  0.1 0.25 0  0.15 0.25 0  0.2 0.25 0  0.25 0.25 0  0.3 0.25 0  0.35 0.25 0  0.4 0.25 0  0.45 0.25 0  0.5 0.25 0  0.55 0.25 0  0.6 0.25 0  0.65 0.25 0  0.7 0.25 0  0.75 0.25 0  0.8 0.25 0  0.85 0.25 0  0.9 0.25 0  0.95 0.25 0  1 0.25 0  0 0.3 0  0.05 0.3 0  0.1 0.3 0  0.15 0.3 0  0.2 0.3 0  0.25 0.3 0  0.3 0.3 0  0.35 0.3 0  0.4 0.3 0  0.45 0.3 0  0.5 0.3 0  0.55 0.3 0  0.6 0.3 0  0.65 0.3 0  0.7 0.3 0  0.75 0.3 0  0.8 0.3 0  0.85 0.3 0  0.9 0.3 0  0.95 0.3 0  1 0.3 0  0 0.35 0  0.05 0.35 0  0.1 0.35 0  0.15 0.35 0  0.2 0.35 0  0.25 0.35 0  0.3 0.35 0  0.35 0.35 0  0.4 0.35 0  0.45 0.35 0  0.5 0.35 0  0.55 0.35 0  0.6 0.35 0  0.65 0.35 0  0.7 0.35 0  0.75 0.35 0  0.8 0.35 0  0.85 0.35 0  0.9 0.35 0  0.95 0.35 0  1 0.35 0  0 0.4 0  0.05 0.4 0  0.1 0.4 0  0.15 0.4 0  0.2 0.4 0  0.25 0.4 0  0.3 0.4 0  0.35 0.4 0  0.4 0.4 0  0.45 0.4 0  0.5 0.4 0  0.55 0.4 0  0.6 0.4 0  0.65 0.4 0  0.7 0.4 0  0.75 0.4 0  0.8 0.4 0  0.85 0.4 0  0.9 0.4 0  0.95 0.4 0  1 0.4 0  0 0.45 0  0.05 0.45 0  0.1 0.45 0  0.15 0.45 0  0.2 0.45 0  0.25 0.45 0  0.3 0.45 0  0.35 0.45 0  0.4 0.45 0  0.45 0.45 0  0.5 0.45 0  0.55 0.45 0  0.6 0.45 0  0.65 0.45 0  0.7 0.45 0  0.75 0.45 0  0.8 0.45 0  0.85 0.45 0  0.9 0.45 0  0.95 0.45 0  1 0.45 0  0 0.5 0  0.05 0.5 0  0.1 0.5 0  0.15 0.5 0  0.2 0.5 0  0.25 0.5 0  0.3 0.5 0  0.35 0.5 0  0.4 0.5 0  0.45 0.5 0  0.5 0.5 0  0.55 0.5 0  0.6 0.5 0  0.65 0.5 0  0.7 0.5 0  0.75 0.5 0  0.8 0.5 0  0.85 0.5 0  0.9 0.5 0  0.95 0.5 0  1 0.5 0  0 0.55 0  0.05 0.55 0  0.1 0.55 0  0.15 0.55 0  0.2 0.55 0  0.25 0.55 0  0.3 0.55 0  0.35 0.55 0  0.4 0.55 0  0.45 0.55 0  0.5 0.55 0  0.55 0.55 0  0.6 0.55 0  0.65 0.55 0  0.7 0.55 0  0.75 0.55 0  0.8 0.55 0  0.85 0.55 0  0.9 0.55 0  0.95 0.55 0  1 0.55 0  0 0.6 0  0.05 0.6 0  0.1 0.6 0  0.15 0.6 0  0.2 0.6 0  0.25 0.6 0  0.3 0.6 0  0.35 0.6 0  0.4 0.6 0  0.45 0.6 0  0.5 0.6 0  0.55 0.6 0  0.6 0.6 0  0.65 0.6 0  0.7 0.6 0  0.75 0.6 0  0.8 0.6 0  0.85 0.6 0  0.9 0.6 0  0.95 0.6 0  1 0.6 0  0 0.65 0  0.05 0.65 0  0.1 0.65 0  0.15 0.65 0  0.2 0.65 0  0.25 0.65 0  0.3 0.65 0  0.35 0.65 0  0.4 0.65 0  0.45 0.65 0  0.5 0.65 0  0.55 0.65 0  0.6 0.65 0  0.65 0.65 0  0.7 0.65 0  0.75 0.65 0  0.8 0.65 0  0.85 0.65 0  0.9 0.65 0  0.95 0.65 0  1 0.65 0  0 0.7 0  0.05 0.7 0  0.1 0.7 0  0.15 0.7 0  0.2 0.7 0  0.25 0.7 0  0.3 0.7 0  0.35 0.7 0  0.4 0.7 0  0.45 0.7 0  0.5 0.7 0  0.55 0.7 0  0.6 0.7 0  0.65 0.7 0  0.7 0.7 0  0.75 0.7 0  0.8 0.7 0  0.85 0.7 0  0.9 0.7 0  0.95 0.7 0  1 0.7 0  0 0.75 0  0.05 0.75 0  0.1 0.75 0  0.15 0.75 0  0.2 0.75 0  0.25 0.75 0  0.3 0.75 0  0.35 0.75 0  0.4 0.75 0  0.45 0.75 0  0.5 0.75 0  0.55 0.75 0  0.6 0.75 0  0.65 0.75 0  0.7 0.75 0  0.75 0.75 0  0.8 0.75 0  0.85 0.75 0  0.9 0.75 0  0.95 0.75 0  1 0.75 0  0 0.8 0  0.05 0.8 0  0.1 0.8 0  0.15 0.8 0  0.2 0.8 0  0.25 0.8 0  0.3 0.8 0  0.35 0.8 0  0.4 0.8 0  0.45 0.8 0  0.5 0.8 0  0.55 0.8 0  0.6 0.8 0  0.65 0.8 0  0.7 0.8 0  0.75 0.8 0  0.8 0.8 0  0.85 0.8 0  0.9 0.8 0  0.95 0.8 0  1 0.8 0  0 0.85 0  0.05 0.85 0  0.1 0.85 0  0.15 0.85 0  0.2 0.85 0  0.25 0.85 0  0.3 0.85 0  0.35 0.85 0  0.4 0.85 0  0.45 0.85 0  0.5 0.85 0  0.55 0.85 0  0.6 0.85 0  0.65 0.85 0  0.7 0.85 0  0.75 0.85 0  0.8 0.85 0  0.85 0.85 0  0.9 0.85 0  0.95 0.85 0  1 0.85 0  0 0.9 0  0.05 0.9 0  0.1 0.9 0  0.15 0.9 0  0.2 0.9 0  0.25 0.9 0  0.3 0.9 0  0.35 0.9 0  0.4 0.9 0  0.45 0.9 0  0.5 0.9 0  0.55 0.9 0  0.6 0.9 0  0.65 0.9 0  0.7 0.9 0  0.75 0.9 0  0.8 0.9 0  0.85 0.9 0  0.9 0.9 0  0.95 0.9 0  1 0.9 0  0 0.95 0  0.05 0.95 0  0.1 0.95 0  0.15 0.95 0  0.2 0.95 0  0.25 0.95 0  0.3 0.95 0  0.35 0.95 0  0.4 0.95 0  0.45 0.95 0  0.5 0.95 0  0.55 0.95 0  0.6 0.95 0  0.65 0.95 0  0.7 0.95 0  0.75 0.95 0  0.8 0.95 0  0.85 0.95 0  0.9 0.95 0  0.95 0.95 0  1 0.95 0  0 1 0  0.05 1 0  0.1 1 0  0.15 1 0  0.2 1 0  0.25 1 0  0.3 1 0  0.35 1 0  0.4 1 0  0.45 1 0  0.5 1 0  0.55 1 0  0.6 1 0  0.65 1 0  0.7 1 0  0.75 1 0  0.8 1 0  0.85 1 0  0.9 1 0  0.95 1 0  1 1 0  </DataArray>
</Points>
<Cells>
[...]
<PointData  Scalars="f_25"> 
<DataArray  type="Float64"  Name="f_25"  format="ascii">0.0000000000000000e+00  0.0000000000000000e+00  0.0000000000000000e+00  0.0000000000000000e+00  0.0000000000000000e+00  0.0000000000000000e+00  0.0000000000000000e+00  0.0000000000000000e+00  0.0000000000000000e+00  0.0000000000000000e+00  0.0000000000000000e+00  0.0000000000000000e+00  0.0000000000000000e+00  0.0000000000000000e+00  0.0000000000000000e+00  0.0000000000000000e+00  0.0000000000000000e+00  0.0000000000000000e+00  0.0000000000000000e+00  0.0000000000000000e+00  0.0000000000000000e+00  0.0000000000000000e+00  2.5513647840512594e-04  6.4816146834277045e-04  1.1920486883614852e-03  1.8910646638375475e-03  2.7378462822293601e-03  3.7125814728819402e-03  4.7838908051929469e-03  5.9110166217095925e-03  7.0468116204897785e-03  8.1409523515763669e-03  9.1427857045188743e-03  1.0003173882777688e-02  1.0674516344096229e-02  1.1107631581283989e-02  1.1243134196102327e-02  1.0992916251097953e-02  1.0203421539065999e-02  8.5842417566051755e-03  5.5662288464769444e-03  0.0000000000000000e+00  0.0000000000000000e+00  6.4816146834277078e-04  1.6276209868071089e-03  2.9752248360706808e-03  4.7031044136605108e-03  6.7938994693249946e-03  9.1993559314163982e-03  1.1842612481114395e-02  1.4623564762896940e-02  1.7426163353979601e-02  2.0126253974032154e-02  2.2598483000784462e-02  2.4720655249073901e-02  2.6373445397307536e-02  2.7432136860711425e-02  2.7744549918793316e-02  2.7084691141353975e-02  2.5063489022594840e-02  2.0963733484132243e-02  1.3441787444580758e-02  0.0000000000000000e+00  0.0000000000000000e+00  1.1920486883614863e-03  2.9752248360706826e-03  5.4179958150007814e-03  8.5439195627406862e-03  1.2323081269765522e-02  1.6669681015595746e-02  2.1446114662918830e-02  2.6472524155532945e-02  3.1539822916532637e-02  3.6423704167197778e-02  4.0896935332871504e-02  4.4736955335816286e-02  4.7724896567774219e-02  4.9629978989069942e-02  5.0168906814984350e-02  4.8922271187980093e-02  4.5177404605714080e-02  3.7647542413390266e-02  2.3988675890108242e-02  0.0000000000000000e+00  0.0000000000000000e+00  1.8910646638375485e-03  4.7031044136605126e-03  8.5439195627406862e-03  1.3451926088567585e-02  1.9382236158054868e-02  2.6202529157600230e-02  3.3699105349783785e-02  4.1591521626850238e-02  4.9552722078322751e-02  5.7230761763348854e-02  6.4267846664678385e-02  7.0311918788231689e-02  7.5014607423632515e-02  7.8006054728311708e-02  7.8830699365308288e-02  7.6817083544064621e-02  7.0837357373901275e-02  5.8886538224195130e-02  3.7376760617616592e-02  0.0000000000000000e+00  0.0000000000000000e+00  2.7378462822293601e-03  6.7938994693249963e-03  1.2323081269765526e-02  1.9382236158054875e-02  2.7909614420807447e-02  3.7718322511860719e-02  4.8504376792240664e-02  5.9867140350952724e-02  7.1337770132915451e-02  8.2410075144513012e-02  9.2567575563387725e-02  1.0129978949098038e-01  1.0809875727327158e-01  1.1242219100364249e-01  1.1360082498913444e-01  1.1065271382403855e-01  1.0194436440590394e-01  8.4605812529843422e-02  5.3563198709312768e-02  0.0000000000000000e+00  0.0000000000000000e+00  3.7125814728819419e-03  9.1993559314164034e-03  1.6669681015595746e-02  2.6202529157600234e-02  3.7718322511860733e-02  5.0969301880668609e-02  6.5549480755131756e-02  8.0921363981363861e-02  9.6453649097549388e-02  1.1146238115256407e-01  1.2524710756975882e-01  1.3711248037428356e-01  1.4636303935872513e-01  1.5225283161657124e-01  1.5386007956182116e-01  1.4983807881840469e-01  1.3796455147411224e-01  1.1437070608360449e-01  7.2277301656740428e-02  0.0000000000000000e+00  0.0000000000000000e+00  4.7838908051929512e-03  1.1842612481114408e-02  2.1446114662918844e-02  3.3699105349783813e-02  4.8504376792240671e-02  6.5549480755131756e-02  8.4318351301311129e-02  1.0412450502599513e-01  1.2415857138736862e-01  1.4354053776819636e-01  1.6136577490536536e-01  1.7673240377351612e-01  1.8873407781283214e-01  1.9639460836176134e-01  1.9850660471940085e-01  1.9331277298398208e-01  1.7793299526132930e-01  1.4739041474882347e-01  9.3024426588394327e-02  0.0000000000000000e+00  0.0000000000000000e+00  5.9110166217095977e-03  1.4623564762896953e-02  2.6472524155532966e-02  4.1591521626850252e-02  5.9867140350952724e-02  8.0921363981363903e-02  1.0412450502599520e-01  1.2863477296355857e-01  1.5345577998977430e-01  1.7750021493422202e-01  1.9964612705668339e-01  2.1877028694058812e-01  2.3373877258867962e-01  2.4332564946894281e-01  2.4601345173404709e-01  2.3960100430693304e-01  2.2050181221583026e-01  1.8255710814697751e-01  1.1511060962481764e-01  0.0000000000000000e+00  0.0000000000000000e+00  7.0468116204897872e-03  1.7426163353979635e-02  3.1539822916532678e-02  4.9552722078322793e-02  7.1337770132915493e-02  9.6453649097549415e-02  1.2415857138736865e-01  1.5345577998977433e-01  1.8316071226553171e-01  2.1197593152480887e-01  2.3855761114165858e-01  2.6155485852452187e-01  2.7959798224010979e-01  2.9120088573890607e-01  2.9452272438956745e-01  2.8690120157943383e-01  2.6402085489206722e-01  2.1851144928691277e-01  1.3768312971057664e-01  0.0000000000000000e+00  0.0000000000000000e+00  8.1409523515763756e-03  2.0126253974032185e-02  3.6423704167197812e-02  5.7230761763348917e-02  8.2410075144513067e-02  1.1146238115256410e-01  1.4354053776819636e-01  1.7750021493422205e-01  2.1197593152480887e-01  2.4546654213249688e-01  2.7641138721890002e-01  3.0323526487396169e-01  3.2433433287859459e-01  3.3796255002044251e-01  3.4195548136630743e-01  3.3319120196946622e-01  3.0663271889846044e-01  2.5371964373993106e-01  1.5977793135977780e-01  0.0000000000000000e+00  0.0000000000000000e+00  9.1427857045188812e-03  2.2598483000784483e-02  4.0896935332871538e-02  6.4267846664678399e-02  9.2567575563387738e-02  1.2524710756975885e-01  1.6136577490536536e-01  1.9964612705668330e-01  2.3855761114165852e-01  2.7641138721889991e-01  3.1144512816607300e-01  3.4187302951094117e-01  3.6586937723647889e-01  3.8144007770069138e-01  3.8611131943113280e-01  3.7632361936947922e-01  3.4635870167878907e-01  2.8654272649947882e-01  1.8036178316394672e-01  0.0000000000000000e+00  0.0000000000000000e+00  1.0003173882777697e-02  2.4720655249073915e-02  4.4736955335816321e-02  7.0311918788231703e-02  1.0129978949098038e-01  1.3711248037428353e-01  1.7673240377351612e-01  2.1877028694058806e-01  2.6155485852452171e-01  3.0323526487396152e-01  3.4187302951094095e-01  3.7549619399086953e-01  4.0208065482657523e-01  4.1940854100436997e-01  4.2472623102378737e-01  4.1408062901581533e-01  3.8114725441057690e-01  3.1527440651747901e-01  1.9835413885234598e-01  0.0000000000000000e+00  0.0000000000000000e+00  1.0674516344096236e-02  2.6373445397307561e-02  4.7724896567774275e-02  7.5014607423632557e-02  1.0809875727327163e-01  1.4636303935872508e-01  1.8873407781283211e-01  2.3373877258867945e-01  2.7959798224010968e-01  3.2433433287859448e-01  3.6586937723647867e-01  4.0208065482657507e-01  4.3078096652850345e-01  4.4956608982201146e-01  4.5544851264076208e-01  4.4414878945292652e-01  4.0884854540967758e-01  3.3811724328225295e-01  2.1260953482099096e-01  0.0000000000000000e+00  0.0000000000000000e+00  1.1107631581283995e-02  2.7432136860711442e-02  4.9629978989069977e-02  7.8006054728311736e-02  1.1242219100364252e-01  1.5225283161657113e-01  1.9639460836176129e-01  2.4332564946894264e-01  2.9120088573890607e-01  3.3796255002044245e-01  3.8144007770069127e-01  4.1940854100436997e-01  4.4956608982201163e-01  4.6937428385634883e-01  4.7567595960612902e-01  4.6395874533707182e-01  4.2706466999038556e-01  3.5305574292582220e-01  2.2183463789225522e-01  0.0000000000000000e+00  0.0000000000000000e+00  1.1243134196102331e-02  2.7744549918793316e-02  5.0168906814984364e-02  7.8830699365308302e-02  1.1360082498913444e-01  1.5386007956182107e-01  1.9850660471940071e-01  2.4601345173404709e-01  2.9452272438956761e-01  3.4195548136630743e-01  3.8611131943113264e-01  4.2472623102378743e-01  4.5544851264076214e-01  4.7567595960612929e-01  4.8216880899137521e-01  4.7030772288364853e-01  4.3280168839239036e-01  3.5756724348078778e-01  2.2440414245494603e-01  0.0000000000000000e+00  0.0000000000000000e+00  1.0992916251097953e-02  2.7084691141353968e-02  4.8922271187980079e-02  7.6817083544064593e-02  1.1065271382403853e-01  1.4983807881840458e-01  1.9331277298398200e-01  2.3960100430693290e-01  2.8690120157943372e-01  3.3319120196946628e-01  3.7632361936947928e-01  4.1408062901581544e-01  4.4414878945292663e-01  4.6395874533707226e-01  4.7030772288364880e-01  4.5864143582050249e-01  4.2181539255111239e-01  3.4808757684477448e-01  2.1802851414931548e-01  0.0000000000000000e+00  0.0000000000000000e+00  1.0203421539065994e-02  2.5063489022594820e-02  4.5177404605714046e-02  7.0837357373901191e-02  1.0194436440590383e-01  1.3796455147411207e-01  1.7793299526132925e-01  2.2050181221583015e-01  2.6402085489206695e-01  3.0663271889846050e-01  3.4635870167878907e-01  3.8114725441057684e-01  4.0884854540967769e-01  4.2706466999038573e-01  4.3280168839239064e-01  4.2181539255111256e-01  3.8749962430171664e-01  3.1912475820141517e-01  1.9922312048138413e-01  0.0000000000000000e+00  0.0000000000000000e+00  8.5842417566051720e-03  2.0963733484132236e-02  3.7647542413390238e-02  5.8886538224195040e-02  8.4605812529843297e-02  1.1437070608360436e-01  1.4739041474882333e-01  1.8255710814697740e-01  2.1851144928691260e-01  2.5371964373993100e-01  2.8654272649947887e-01  3.1527440651747896e-01  3.3811724328225301e-01  3.5305574292582231e-01  3.5756724348078783e-01  3.4808757684477432e-01  3.1912475820141512e-01  2.6191137688776367e-01  1.6256194566036172e-01  0.0000000000000000e+00  0.0000000000000000e+00  5.5662288464769401e-03  1.3441787444580747e-02  2.3988675890108217e-02  3.7376760617616536e-02  5.3563198709312691e-02  7.2277301656740331e-02  9.3024426588394230e-02  1.1511060962481759e-01  1.3768312971057653e-01  1.5977793135977780e-01  1.8036178316394677e-01  1.9835413885234590e-01  2.1260953482099101e-01  2.2183463789225519e-01  2.2440414245494611e-01  2.1802851414931554e-01  1.9922312048138413e-01  1.6256194566036175e-01  9.9860038658308878e-02  0.0000000000000000e+00  0.0000000000000000e+00  0.0000000000000000e+00  0.0000000000000000e+00  0.0000000000000000e+00  0.0000000000000000e+00  0.0000000000000000e+00  0.0000000000000000e+00  0.0000000000000000e+00  0.0000000000000000e+00  0.0000000000000000e+00  0.0000000000000000e+00  0.0000000000000000e+00  0.0000000000000000e+00  0.0000000000000000e+00  0.0000000000000000e+00  0.0000000000000000e+00  0.0000000000000000e+00  0.0000000000000000e+00  0.0000000000000000e+00  0.0000000000000000e+00  0.0000000000000000e+00  </DataArray> 
</PointData> 
</Piece>
</UnstructuredGrid>
</VTKFile>