<?xml version="1.0"?>
<VTKFile type="UnstructuredGrid"  version="0.1"  >
<UnstructuredGrid>
<Piece  NumberOfPoints="441" NumberOfCells="800">
<Points>
<DataArray  type="Float64"  NumberOfComponents="3"  format="ascii">0 0 0  0.05 0 0  0.1 0 0  0.15 0 0  0.2 0 0  0.25 0 0  0.3 0 0  0.35 0 0  0.4 0 0  0.45 0 0  0.5 0 0  0.55 0 0  0.6 0 0  0.65 0 0  0.7 0 0  0.75 0 0  0.8 0 0  0.85 0 0  0.9 0 0  0.95 0 0  1 0 0  0 0.05 0  0.05 0.05 0  0.1 0.05 0  0.15 0.05 0  0.2 0.05 0  0.25 0.05 0  0.3 0.05 0  0.35 0.05 0  0.4 0.05 0  0.45 0.05 0  0.5 0.05 0  0.55 0.05 0  0.6 0.05 0  0.65 0.05 0  0.7 0.05 0  0.75 0.05 0  0.8 0.05 0  0.85 0.05 0  0.9 0.05 0  0.95 0.05 0  1 0.05 0  0 0.1 0  0.05 0.1 0  0.1 0.1 0  0.15 0.1 0  0.2 0.1 0  0.25 0.1 0  0.3 0.1 0  0.35 0.1 0  0.4 0.1 0  0.45 0.1 0  0.5 0.1 0  0.55 0.1 0  0.6 0.1 0  0.65 0.1 0  0.7 0.1 0  0.75 0.1 0  0.8 0.1 0  0.85 0.1 0  0.9 0.1 0  0.95 0.1 0  1 0.1 0  0 0.15 0  0.05 0.15 0  0.1 0.15 0  0.15 0.15 0  0.2 0.15 0  0.25 0.15 0  0.3 0.15 0  0.35 0.15 0  0.4 0.15 0  0.45 0.15 0  0.5 0.15 0  0.55 0.15 0  0.6 0.15 0  0.65 0.15 0  0.7 0.15 0  0.75 0.15 0  0.8 0.15 0  0.85 0.15 0  0.9 0.15 0  0.95 0.15 0  1 0.15 0  0 0.2 0  0.05 0.2 0  0.1 0.2 0  0.15 0.2 0  0.2 0.2 0  0.25 0.2 0  0.3 0.2 0  0.35 0.2 0  0.4 0.2 0  0.45 0.2 0  0.5 0.2 0  0.55 0.2 0  0.6 0.2 0  0.65 0.2 0  0.7 0.2 0  0.75 0.2 0  0.8 0.2 0  0.85 0.2 0  0.9 0.2 0  0.95 0.2 0  1 0.2 0  0 0.25 0  0.05 0.25 0  0.1 0.25 0  0.15 0.25 0  0.2 0.25 0  0.25 0.25 0  0.3 0.25 0  0.35 0.25 0  0.4 0.25 0  0.45 0.25 0  0.5 0.25 0  0.55 0.25 0  0.6 0.25 0  0.65 0.25 0  0.7 0.25 0  0.75 0.25 0  0.8 0.25 0  0.85 0.25 0  0.9 0.25 0  0.95 0.25 0  1 0.25 0  0 0.3 0  0.05 0.3 0  0.1 0.3 0  0.15 0.3 0  0.2 0.3 0  0.25 0.3 0  0.3 0.3 0  0.35 0.3 0  0.4 0.3 0  0.45 0.3 0  0.5 0.3 0  0.55 0.3 0  0.6 0.3 0  0.65 0.3 0  0.7 0.3 0  0.75 0.3 0  0.8 0.3 0  0.85 0.3 0  0.9 0.3 0  0.95 0.3 0  1 0.3 0  0 0.35 0  0.05 0.35 0  0.1 0.35 0  0.15 0.35 0  0.2 0.35 0  0.25 0.35 0  0.3 0.35 0  0.35 0.35 0  0.4 0.35 0  0.45 0.35 0  0.5 0.35 0  0.55 0.35 0  0.6 0.35 0  0.65 0.35 0  0.7 0.35 0  0.75 0.35 0  0.8 0.35 0  0.85 0.35 0  0.9 0.35 0  0.95 0.35 0  1 0.35 0  0 0.4 0  0.05 0.4 0  0.1 0.4 0  0.15 0.4 0  0.2 0.4 0  0.25 0.4 0  0.3 0.4 0  0.35 0.4 0  0.4 0.4 0  0.45 0.4 0  0.5 0.4 0  0.55 0.4 0  0.6 0.4 0  0.65 0.4 0  0.7 0.4 0  0.75 0.4 0  0.8 0.4 0  0.85 0.4 0  0.9 0.4 0  0.95 0.4 0  1 0.4 0  0 0.45 0  0.05 0.45 0  0.1 0.45 0  0.15 0.45 0  0.2 0.45 0  0.25 0.45 0  0.3 0.45 0  0.35 0.45 0  0.4 0.45 0  0.45 0.45 0  0.5 0.45 0  0.55 0.45 0  0.6 0.45 0  0.65 0.45 0  0.7 0.45 0  0.75 0.45 0  0.8 0.45 0  0.85 0.45 0  0.9 0.45 0  0.95 0.45 0  1 0.45 0  0 0.5 0  0.05 0.5 0  0.1 0.5 0  0.15 0.5 0  0.2 0.5 0  0.25 0.5 0  0.3 0.5 0  0.35 0.5 0  0.4 0.5 0  0.45 0.5 0  0.5 0.5 0  0.55 0.5 0  0.6 0.5 0  0.65 0.5 0  0.7 0.5 0  0.75 0.5 0  0.8 0.5 0  0.85 0.5 0  0.9 0.5 0  0.95 0.5 0  1 0.5 0  0 0.55 0  0.05 0.55 0  0.1 0.55 0  0.15 0.55 0  0.2 0.55 0  0.25 0.55 0  0.3 0.55 0  0.35 0.55 0  0.4 0.55 0  0.45 0.55 0  0.5 0.55 0  0.55 0.55 0  0.6 0.55 0  0.65 0.55 0  0.7 0.55 0  0.75 0.55 0  0.8 0.55 0  0.85 0.55 0  0.9 0.55 0  0.95 0.55 0  1 0.55 0  0 0.6 0  0.05 0.6 0  0.1 0.6 0  0.15 0.6 0  0.2 0.6 0  0.25 0.6 0  0.3 0.6 0  0.35 0.6 0  0.4 0.6 0  0.45 0.6 0  0.5 0.6 0  0.55 0.6 0  0.6 0.6 0  0.65 0.6 0  0.7 0.6 0  0.75 0.6 0  0.8 0.6 0  0.85 0.6 0  0.9 0.6 0  0.95 0.6 0  1 0.6 0  0 0.65 0  0.05 0.65 0  0.1 0.65 0  0.15 0.65 0  0.2 0.65 0  0.25 0.65 0  0.3 0.65 0  0.35 0.65 0  0.4 0.65 0  0.45 0.65 0  0.5 0.65 0  0.55 0.65 0  0.6 0.65 0  0.65 0.65 0  0.7 0.65 0  0.75 0.65 0  0.8 0.65 0  0.85 0.65 0  0.9 0.65 0  0.95 0.65 0  1 0.65 0  0 0.7 0  0.05 0.7 0  0.1 0.7 0  0.15 0.7 0  0.2 0.7 0  0.25 0.7 0  0.3 0.7 0  0.35 0.7 0  0.4 0.7 0  0.45 0.7 0  0.5 0.7 0  0.55 0.7 0  0.6 0.7 0  0.65 0.7 0  0.7 0.7 0  0.75 0.7 0  0.8 0.7 0  0.85 0.7 0  0.9 0.7 0  0.95 0.7 0  1 0.7 0  0 0.75 0  0.05 0.75 0  0.1 0.75 0  0.15 0.75 0  0.2 0.75 0  0.25 0.75 0  0.3 0.75 0  0.35 0.75 0  0.4 0.75 0  0.45 0.75 0  0.5 0.75 0  0.55 0.75 0  0.6 0.75 0  0.65 0.75 0  0.7 0.75 0  0.75 0.75 0  0.8 0.75 0  0.85 0.75 0  0.9 0.75 0  0.95 0.75 0  1 0.75 0  0 0.8 0  0.05 0.8 0  0.1 0.8 0  0.15 0.8 0  0.2 0.8 0  0.25 0.8 0  0.3 0.8 0  0.35 0.8 0  0.4 0.8 0  0.45 0.8 0  0.5 0.8 0  0.55 0.8 0  0.6 0.8 0  0.65 0.8 0  0.7 0.8 0  0.75 0.8 0  0.8 0.8 0  0.85 0.8 0  0.9 0.8 0  0.95 0.8 0  1 0.8 0  0 0.85 0  0.05 0.85 0  0.1 0.85 0  0.15 0.85 0  0.2 0.85 0  0.25 0.85 0  0.3 0.85 0  0.35 0.85 0  0.4 0.85 0  0.45 0.85 0  0.5 0.85 0  0.55 0.85 0  0.6 0.85 0  0.65 0.85 0  0.7 0.85 0  0.75 0.85 0  0.8 0.85 0  0.85 0.85 0  0.9 0.85 0  0.95 0.85 0  1 0.85 0  0 0.9 0  0.05 0.9 0  0.1 0.9 0  0.15 0.9 0  0.2 0.9 0  0.25 0.9 0  0.3 0.9 0  0.35 0.9 0  0.4 0.9 0  0.45 0.9 0  0.5 0.9 0  0.55 0.9 0  0.6 0.9 0  0.65 0.9 0  0.7 0.9 0  0.75 0.9 0  0.8 0.9 0  0.85 0.9 0  0.9 0.9 0  0.95 0.9 0  1 0.9 0  0 0.95 0  0.05 0.95 0  0.1 0.95 0  0.15 0.95 0  0.2 0.95 0  0.25 0.95 0  0.3 0.95 0  0.35 0.95 0  0.4 0.95 0  0.45 0.95 0  0.5 0.95 0  0.55 0.95 0  0.6 0.95 0  0.65 0.95 0  0.7 0.95 0  0.75 0.95 0  0.8 0.95 0  0.85 0.95 0  0.9 0.95 0  0.95 0.95 0  1 0.95 0  0 1 0  0.05 1 0  0.1 1 0  0.15 1 0  0.2 1 0  0.25 1 0  0.3 1 0  0.35 1 0  0.4 1 0  0.45 1 0  0.5 1 0  0.55 1 0  0.6 1 0  0.65 1 0  0.7 1 0  0.75 1 0  0.8 1 0  0.85 1 0  0.9 1 0  0.95 1 0  1 1 0  </DataArray>
</Points>
<Cells>
[...]
<PointData  Scalars="f_25"> 
<DataArray  type="Float64"  Name="f_25"  format="ascii">0.0000000000000000e+00  0.0000000000000000e+00  0.0000000000000000e+00  0.0000000000000000e+00  0.0000000000000000e+00  0.0000000000000000e+00  0.0000000000000000e+00  0.0000000000000000e+00  0.0000000000000000e+00  0.0000000000000000e+00  0.0000000000000000e+00  0.0000000000000000e+00  0.0000000000000000e+00  0.0000000000000000e+00  0.0000000000000000e+00  0.0000000000000000e+00  0.0000000000000000e+00  0.0000000000000000e+00  0.0000000000000000e+00  0.0000000000000000e+00  0.0000000000000000e+00  0.0000000000000000e+00  3.4605374514587405e-06  9.1113784664558216e-06  1.7531709847541501e-05  2.9379216224334212e-05  4.5342730831571510e-05  6.6092728137749155e-05  9.2222046057757027e-05  1.2417376240936922e-04  1.6215314756832502e-04  2.0601798280502932e-04  2.5513606608596352e-04  3.0818939480527934e-04  3.6288958965998255e-04  4.1554575116591297e-04  4.6038880367541837e-04  4.8849377409560738e-04  4.8602302510831211e-04  4.3124975451266982e-04  2.8912280412038123e-04  0.0000000000000000e+00  0.0000000000000000e+00  9.1113784664558250e-06  2.3642955001907712e-05  4.5133139751444517e-05  7.5258621811828756e-05  1.1575444295047788e-04  1.6829993858835684e-04  2.3437206719386839e-04  3.1506348592624854e-04  4.1085866575068050e-04  5.2135347283301732e-04  6.4488939708802441e-04  7.7804996921663149e-04  9.1492971138326554e-04  1.0460290033965768e-03  1.1565414028245548e-03  1.2236650308965855e-03  1.2123511610019275e-03  1.0685315566494663e-03  7.0822678308383796e-04  0.0000000000000000e+00  0.0000000000000000e+00  1.7531709847541511e-05  4.5133139751444530e-05  8.5703829718347321e-05  1.4238282582208723e-04  2.1840176721704159e-04  3.1687616642659772e-04  4.4053333623056043e-04  5.9137209385702312e-04  7.7024166120088393e-04  9.7631203055538668e-04  1.2063813153149734e-03  1.4539219810733508e-03  1.7077004636504977e-03  1.9497042756004030e-03  2.1519645852005756e-03  2.2716529125295574e-03  2.2435355055768743e-03  1.9684690992347736e-03  1.2961471412820367e-03  0.0000000000000000e+00  0.0000000000000000e+00  2.9379216224334218e-05  7.5258621811828769e-05  1.4238282582208729e-04  2.3588409695369402e-04  3.6103565849692225e-04  5.2290844888777590e-04  7.2592466535423511e-04  9.7329808748928116e-04  1.2663393383789288e-03  1.6035796541974097e-03  1.9796233860754028e-03  2.3835695801118378e-03  2.7967368686961972e-03  3.1892718213985178e-03  3.5150055386725713e-03  3.7036339569895900e-03  3.6489291228174315e-03  3.1912640011745124e-03  2.0923494198884234e-03  0.0000000000000000e+00  0.0000000000000000e+00  4.5342730831571503e-05  1.1575444295047785e-04  2.1840176721704156e-04  3.6103565849692214e-04  5.5161208028953722e-04  7.9776849710200325e-04  1.1061444183484189e-03  1.4815289359611159e-03  1.9258004855774561e-03  2.4365872281308680e-03  3.0055118581534495e-03  3.6157815834726693e-03  4.2387298276074887e-03  4.8286970335433797e-03  5.3153410025158065e-03  5.5920861407938918e-03  5.4989675435287797e-03  4.7976524886053718e-03  3.1360597425831617e-03  0.0000000000000000e+00  0.0000000000000000e+00  6.6092728137749168e-05  1.6829993858835687e-04  3.1687616642659782e-04  5.2290844888777622e-04  7.9776849710200346e-04  1.1523578003072223e-03  1.5961281480924361e-03  2.1358515776856444e-03  2.7740881395862923e-03  3.5072474945464535e-03  4.3230493206920795e-03  5.1970436576976742e-03  6.0876397705970442e-03  6.9287950380993281e-03  7.6191219840580750e-03  8.0056822867983941e-03  7.8601787419447927e-03  6.8447077652069544e-03  4.4638571447014868e-03  0.0000000000000000e+00  0.0000000000000000e+00  9.2222046057757108e-05  2.3437206719386855e-04  4.4053333623056054e-04  7.2592466535423522e-04  1.1061444183484189e-03  1.5961281480924361e-03  2.2087950158707417e-03  2.9533457319901551e-03  3.8331392580674443e-03  4.8430040487983427e-03  5.9657165446982997e-03  7.1671868555209855e-03  8.3896096903697034e-03  9.5414497314708982e-03  1.0482624347462985e-02  1.1002630424035183e-02  1.0788679485307297e-02  9.3802610444259586e-03  6.1061467947832815e-03  0.0000000000000000e+00  0.0000000000000000e+00  1.2417376240936930e-04  3.1506348592624865e-04  5.9137209385702323e-04  9.7329808748928095e-04  1.4815289359611152e-03  2.1358515776856448e-03  2.9533457319901547e-03  3.9461086761460621e-03  5.1184128276142472e-03  6.4631033351001338e-03  7.9568820573927574e-03  9.5538743060964524e-03  1.1176512311306707e-02  1.2702274643647083e-02  1.3944185043495354e-02  1.4622213091498339e-02  1.4321894227331166e-02  1.2435733898986613e-02  8.0825267674551112e-03  0.0000000000000000e+00  0.0000000000000000e+00  1.6215314756832516e-04  4.1085866575068082e-04  7.7024166120088448e-04  1.2663393383789290e-03  1.9258004855774561e-03  2.7740881395862918e-03  3.8331392580674452e-03  5.1184128276142481e-03  6.6351968239356995e-03  8.3739241472218853e-03  1.0304043540117099e-02  1.2365676304477189e-02  1.4457836117938423e-02  1.6421375666694781e-02  1.8014043894500262e-02  1.8874117136036428e-02  1.8468088821436641e-02  1.6017039189443777e-02  1.0395863983174944e-02  0.0000000000000000e+00  0.0000000000000000e+00  2.0601798280502935e-04  5.2135347283301732e-04  9.7631203055538668e-04  1.6035796541974093e-03  2.4365872281308658e-03  3.5072474945464518e-03  4.8430040487983435e-03  6.4631033351001321e-03  8.3739241472218853e-03  1.0563049536155991e-02  1.2991513731347933e-02  1.5583269456055314e-02  1.8210367654003433e-02  2.0671599092193349e-02  2.2661413127099069e-02  2.3724841285928989e-02  2.3193020384369739e-02  2.0092949159624608e-02  1.3024697741915061e-02  0.0000000000000000e+00  0.0000000000000000e+00  2.5513606608596357e-04  6.4488939708802473e-04  1.2063813153149741e-03  1.9796233860754015e-03  3.0055118581534461e-03  4.3230493206920743e-03  5.9657165446982945e-03  7.9568820573927539e-03  1.0304043540117096e-02  1.2991513731347933e-02  1.5970859415730315e-02  1.9147938113227708e-02  2.2364718533102491e-02  2.5373194496433386e-02  2.7797611435498769e-02  2.9079974081417052e-02  2.8402532992361729e-02  2.4579925401531925e-02  1.5913323152436119e-02  0.0000000000000000e+00  0.0000000000000000e+00  3.0818939480527940e-04  7.7804996921663116e-04  1.4539219810733505e-03  2.3835695801118356e-03  3.6157815834726627e-03  5.1970436576976673e-03  7.1671868555209777e-03  9.5538743060964420e-03  1.2365676304477179e-02  1.5583269456055307e-02  1.9147938113227691e-02  2.2946014438574538e-02  2.6787129860866180e-02  3.0373144053465077e-02  3.3253380909330048e-02  3.4760410302441737e-02  3.3919248315946483e-02  2.9321837696654911e-02  1.8958549678499092e-02  0.0000000000000000e+00  0.0000000000000000e+00  3.6288958965998238e-04  9.1492971138326488e-04  1.7077004636504973e-03  2.7967368686961937e-03  4.2387298276074827e-03  6.0876397705970364e-03  8.3896096903696947e-03  1.1176512311306690e-02  1.4457836117938407e-02  1.8210367654003419e-02  2.2364718533102474e-02  2.6787129860866163e-02  3.1254126505377851e-02  3.5416472548017719e-02  3.8747525200017514e-02  4.0469603574901147e-02  3.9450610984380831e-02  3.4062281921325703e-02  2.1991698249466972e-02  0.0000000000000000e+00  0.0000000000000000e+00  4.1554575116591286e-04  1.0460290033965764e-03  1.9497042756004019e-03  3.1892718213985139e-03  4.8286970335433719e-03  6.9287950380993168e-03  9.5414497314708895e-03  1.2702274643647069e-02  1.6421375666694774e-02  2.0671599092193335e-02  2.5373194496433368e-02  3.0373144053465077e-02  3.5416472548017726e-02  4.0105649410151177e-02  4.3842776404124748e-02  4.5747771774893323e-02  4.4544516289248076e-02  3.8406432046801019e-02  2.4753977342627673e-02  0.0000000000000000e+00  0.0000000000000000e+00  4.6038880367541826e-04  1.1565414028245542e-03  2.1519645852005748e-03  3.5150055386725665e-03  5.3153410025158021e-03  7.6191219840580655e-03  1.0482624347462980e-02  1.3944185043495346e-02  1.8014043894500262e-02  2.2661413127099062e-02  2.7797611435498734e-02  3.3253380909330041e-02  3.8747525200017507e-02  4.3842776404124768e-02  4.7883401906451781e-02  4.9907715066974161e-02  4.8527768865543587e-02  4.1768775875826329e-02  2.6863190852899288e-02  0.0000000000000000e+00  0.0000000000000000e+00  4.8849377409560706e-04  1.2236650308965844e-03  2.2716529125295544e-03  3.7036339569895844e-03  5.5920861407938831e-03  8.0056822867983855e-03  1.1002630424035176e-02  1.4622213091498325e-02  1.8874117136036421e-02  2.3724841285928978e-02  2.9079974081417031e-02  3.4760410302441730e-02  4.0469603574901140e-02  4.5747771774893357e-02  4.9907715066974188e-02  5.1945883398162467e-02  5.0422133909379878e-02  4.3303257550039796e-02  2.7770331966454887e-02  0.0000000000000000e+00  0.0000000000000000e+00  4.8602302510831157e-04  1.2123511610019257e-03  2.2435355055768712e-03  3.6489291228174272e-03  5.4989675435287702e-03  7.8601787419447788e-03  1.0788679485307288e-02  1.4321894227331152e-02  1.8468088821436621e-02  2.3193020384369715e-02  2.8402532992361701e-02  3.3919248315946456e-02  3.9450610984380831e-02  4.4544516289248104e-02  4.8527768865543594e-02  5.0422133909379885e-02  4.8833621532517205e-02  4.1814516790103784e-02  2.6707364726273160e-02  0.0000000000000000e+00  0.0000000000000000e+00  4.3124975451266912e-04  1.0685315566494645e-03  1.9684690992347706e-03  3.1912640011745068e-03  4.7976524886053631e-03  6.8447077652069432e-03  9.3802610444259447e-03  1.2435733898986601e-02  1.6017039189443756e-02  2.0092949159624580e-02  2.4579925401531897e-02  2.9321837696654883e-02  3.4062281921325696e-02  3.8406432046801026e-02  4.1768775875826329e-02  4.3303257550039810e-02  4.1814516790103798e-02  3.5655736578514924e-02  2.2635907669494890e-02  0.0000000000000000e+00  0.0000000000000000e+00  2.8912280412038085e-04  7.0822678308383688e-04  1.2961471412820346e-03  2.0923494198884195e-03  3.1360597425831548e-03  4.4638571447014790e-03  6.1061467947832728e-03  8.0825267674551043e-03  1.0395863983174932e-02  1.3024697741915052e-02  1.5913323152436102e-02  1.8958549678499068e-02  2.1991698249466961e-02  2.4753977342627673e-02  2.6863190852899285e-02  2.7770331966454894e-02  2.6707364726273171e-02  2.2635907669494897e-02  1.4230506505284353e-02  0.0000000000000000e+00  0.0000000000000000e+00  0.0000000000000000e+00  0.0000000000000000e+00  0.0000000000000000e+00  0.0000000000000000e+00  0.0000000000000000e+00  0.0000000000000000e+00  0.0000000000000000e+00  0.0000000000000000e+00  0.0000000000000000e+00  0.0000000000000000e+00  0.0000000000000000e+00  0.0000000000000000e+00  0.0000000000000000e+00  0.0000000000000000e+00  0.0000000000000000e+00  0.0000000000000000e+00  0.0000000000000000e+00  0.0000000000000000e+00  0.0000000000000000e+00  0.0000000000000000e+00  </DataArray> 
</PointData> 
</Piece>
</UnstructuredGrid>
</VTKFile>