<?xml version="1.0"?>
<VTKFile type="UnstructuredGrid"  version="0.1"  >
<UnstructuredGrid>
<Piece  NumberOfPoints="441" NumberOfCells="800">
<Points>
<DataArray  type="Float64"  NumberOfComponents="3"  format="ascii">0 0 0  0.05 0 0  0.1 0 0  0.15 0 0  0.2 0 0  0.25 0 0  0.3 0 0  0.35 0 0  0.4 0 0  0.45 0 0  0.5 0 0  0.55 0 0  0.6 0 0  0.65 0 0  0.7 0 0  0.75 0 0  0.8 0 0  0.85 0 0  0.9 0 0  0.95 0 0  1 0 0  0 0.05 0  0.05 0.05 0  0.1 0.05 0  0.15 0.05 0  0.2 0.05 0  0.25 0.05 0  0.3 0.05 0  0.35 0.05 0  0.4 0.05 0  0.45 0.05 0  0.5 0.05 0  0.55 0.05 0  0.6 0.05 0  0.65 0.05 0  0.7 0.05 0  0.75 0.05 0  0.8 0.05 0  0.85 0.05 0  0.9 0.05 0  0.95 0.05 0  1 0.05 0  0 0.1 0  0.05 0.1 0  0.1 0.1 0  0.15 0.1 0  0.2 0.1 0  0.25 0.1 0  0.3 0.1 0  0.35 0.1 0  0.4 0.1 0  0.45 0.1 0  0.5 0.1 0  0.55 0.1 0  0.6 0.1 0  0.65 0.1 0  0.7 0.1 0  0.75 0.1 0  0.8 0.1 0  0.85 0.1 0  0.9 0.1 0  0.95 0.1 0  1 0.1 0  0 0.15 0  0.05 0.15 0  0.1 0.15 0  0.15 0.15 0  0.2 0.15 0  0.25 0.15 0  0.3 0.15 0  0.35 0.15 0  0.4 0.15 0  0.45 0.15 0  0.5 0.15 0  0.55 0.15 0  0.6 0.15 0  0.65 0.15 0  0.7 0.15 0  0.75 0.15 0  0.8 0.15 0  0.85 0.15 0  0.9 0.15 0  0.95 0.15 0  1 0.15 0  0 0.2 0  0.05 0.2 0  0.1 0.2 0  0.15 0.2 0  0.2 0.2 0  0.25 0.2 0  0.3 0.2 0  0.35 0.2 0  0.4 0.2 0  0.45 0.2 0  0.5 0.2 0  0.55 0.2 0  0.6 0.2 0  0.65 0.2 0  0.7 0.2 0  0.75 0.2 0  0.8 0.2 0  0.85 0.2 0  0.9 0.2 0  0.95 0.2 0  1 0.2 0  0 0.25 0  0.05 0.25 0  0.1 0.25 0  0.15 0.25 0  0.2 0.25 0  0.25 0.25 0  0.3 0.25 0  0.35 0.25 0  0.4 0.25 0  0.45 0.25 0  0.5 0.25 0  0.55 0.25 0  0.6 0.25 0  0.65 0.25 0  0.7 0.25 0  0.75 0.25 0  0.8 0.25 0  0.85 0.25 0  0.9 0.25 0  0.95 0.25 0  1 0.25 0  0 0.3 0  0.05 0.3 0  0.1 0.3 0  0.15 0.3 0  0.2 0.3 0  0.25 0.3 0  0.3 0.3 0  0.35 0.3 0  0.4 0.3 0  0.45 0.3 0  0.5 0.3 0  0.55 0.3 0  0.6 0.3 0  0.65 0.3 0  0.7 0.3 0  0.75 0.3 0  0.8 0.3 0  0.85 0.3 0  0.9 0.3 0  0.95 0.3 0  1 0.3 0  0 0.35 0  0.05 0.35 0  0.1 0.35 0  0.15 0.35 0  0.2 0.35 0  0.25 0.35 0  0.3 0.35 0  0.35 0.35 0  0.4 0.35 0  0.45 0.35 0  0.5 0.35 0  0.55 0.35 0  0.6 0.35 0  0.65 0.35 0  0.7 0.35 0  0.75 0.35 0  0.8 0.35 0  0.85 0.35 0  0.9 0.35 0  0.95 0.35 0  1 0.35 0  0 0.4 0  0.05 0.4 0  0.1 0.4 0  0.15 0.4 0  0.2 0.4 0  0.25 0.4 0  0.3 0.4 0  0.35 0.4 0  0.4 0.4 0  0.45 0.4 0  0.5 0.4 0  0.55 0.4 0  0.6 0.4 0  0.65 0.4 0  0.7 0.4 0  0.75 0.4 0  0.8 0.4 0  0.85 0.4 0  0.9 0.4 0  0.95 0.4 0  1 0.4 0  0 0.45 0  0.05 0.45 0  0.1 0.45 0  0.15 0.45 0  0.2 0.45 0  0.25 0.45 0  0.3 0.45 0  0.35 0.45 0  0.4 0.45 0  0.45 0.45 0  0.5 0.45 0  0.55 0.45 0  0.6 0.45 0  0.65 0.45 0  0.7 0.45 0  0.75 0.45 0  0.8 0.45 0  0.85 0.45 0  0.9 0.45 0  0.95 0.45 0  1 0.45 0  0 0.5 0  0.05 0.5 0  0.1 0.5 0  0.15 0.5 0  0.2 0.5 0  0.25 0.5 0  0.3 0.5 0  0.35 0.5 0  0.4 0.5 0  0.45 0.5 0  0.5 0.5 0  0.55 0.5 0  0.6 0.5 0  0.65 0.5 0  0.7 0.5 0  0.75 0.5 0  0.8 0.5 0  0.85 0.5 0  0.9 0.5 0  0.95 0.5 0  1 0.5 0  0 0.55 0  0.05 0.55 0  0.1 0.55 0  0.15 0.55 0  0.2 0.55 0  0.25 0.55 0  0.3 0.55 0  0.35 0.55 0  0.4 0.55 0  0.45 0.55 0  0.5 0.55 0  0.55 0.55 0  0.6 0.55 0  0.65 0.55 0  0.7 0.55 0  0.75 0.55 0  0.8 0.55 0  0.85 0.55 0  0.9 0.55 0  0.95 0.55 0  1 0.55 0  0 0.6 0  0.05 0.6 0  0.1 0.6 0  0.15 0.6 0  0.2 0.6 0  0.25 0.6 0  0.3 0.6 0  0.35 0.6 0  0.4 0.6 0  0.45 0.6 0  0.5 0.6 0  0.55 0.6 0  0.6 0.6 0  0.65 0.6 0  0.7 0.6 0  0.75 0.6 0  0.8 0.6 0  0.85 0.6 0  0.9 0.6 0  0.95 0.6 0  1 0.6 0  0 0.65 0  0.05 0.65 0  0.1 0.65 0  0.15 0.65 0  0.2 0.65 0  0.25 0.65 0  0.3 0.65 0  0.35 0.65 0  0.4 0.65 0  0.45 0.65 0  0.5 0.65 0  0.55 0.65 0  0.6 0.65 0  0.65 0.65 0  0.7 0.65 0  0.75 0.65 0  0.8 0.65 0  0.85 0.65 0  0.9 0.65 0  0.95 0.65 0  1 0.65 0  0 0.7 0  0.05 0.7 0  0.1 0.7 0  0.15 0.7 0  0.2 0.7 0  0.25 0.7 0  0.3 0.7 0  0.35 0.7 0  0.4 0.7 0  0.45 0.7 0  0.5 0.7 0  0.55 0.7 0  0.6 0.7 0  0.65 0.7 0  0.7 0.7 0  0.75 0.7 0  0.8 0.7 0  0.85 0.7 0  0.9 0.7 0  0.95 0.7 0  1 0.7 0  0 0.75 0  0.05 0.75 0  0.1 0.75 0  0.15 0.75 0  0.2 0.75 0  0.25 0.75 0  0.3 0.75 0  0.35 0.75 0  0.4 0.75 0  0.45 0.75 0  0.5 0.75 0  0.55 0.75 0  0.6 0.75 0  0.65 0.75 0  0.7 0.75 0  0.75 0.75 0  0.8 0.75 0  0.85 0.75 0  0.9 0.75 0  0.95 0.75 0  1 0.75 0  0 0.8 0  0.05 0.8 0  0.1 0.8 0  0.15 0.8 0  0.2 0.8 0  0.25 0.8 0  0.3 0.8 0  0.35 0.8 0  0.4 0.8 0  0.45 0.8 0  0.5 0.8 0  0.55 0.8 0  0.6 0.8 0  0.65 0.8 0  0.7 0.8 0  0.75 0.8 0  0.8 0.8 0  0.85 0.8 0  0.9 0.8 0  0.95 0.8 0  1 0.8 0  0 0.85 0  0.05 0.85 0  0.1 0.85 0  0.15 0.85 0  0.2 0.85 0  0.25 0.85 0  0.3 0.85 0  0.35 0.85 0  0.4 0.85 0  0.45 0.85 0  0.5 0.85 0  0.55 0.85 0  0.6 0.85 0  0.65 0.85 0  0.7 0.85 0  0.75 0.85 0  0.8 0.85 0  0.85 0.85 0  0.9 0.85 0  0.95 0.85 0  1 0.85 0  0 0.9 0  0.05 0.9 0  0.1 0.9 0  0.15 0.9 0  0.2 0.9 0  0.25 0.9 0  0.3 0.9 0  0.35 0.9 0  0.4 0.9 0  0.45 0.9 0  0.5 0.9 0  0.55 0.9 0  0.6 0.9 0  0.65 0.9 0  0.7 0.9 0  0.75 0.9 0  0.8 0.9 0  0.85 0.9 0  0.9 0.9 0  0.95 0.9 0  1 0.9 0  0 0.95 0  0.05 0.95 0  0.1 0.95 0  0.15 0.95 0  0.2 0.95 0  0.25 0.95 0  0.3 0.95 0  0.35 0.95 0  0.4 0.95 0  0.45 0.95 0  0.5 0.95 0  0.55 0.95 0  0.6 0.95 0  0.65 0.95 0  0.7 0.95 0  0.75 0.95 0  0.8 0.95 0  0.85 0.95 0  0.9 0.95 0  0.95 0.95 0  1 0.95 0  0 1 0  0.05 1 0  0.1 1 0  0.15 1 0  0.2 1 0  0.25 1 0  0.3 1 0  0.35 1 0  0.4 1 0  0.45 1 0  0.5 1 0  0.55 1 0  0.6 1 0  0.65 1 0  0.7 1 0  0.75 1 0  0.8 1 0  0.85 1 0  0.9 1 0  0.95 1 0  1 1 0  </DataArray>
</Points>
<Cells>
[...]
<PointData  Scalars="f_25"> 
<DataArray  type="Float64"  Name="f_25"  format="ascii">0.0000000000000000e+00  0.0000000000000000e+00  0.0000000000000000e+00  0.0000000000000000e+00  0.0000000000000000e+00  0.0000000000000000e+00  0.0000000000000000e+00  0.0000000000000000e+00  0.0000000000000000e+00  0.0000000000000000e+00  0.0000000000000000e+00  0.0000000000000000e+00  0.0000000000000000e+00  0.0000000000000000e+00  0.0000000000000000e+00  0.0000000000000000e+00  0.0000000000000000e+00  0.0000000000000000e+00  0.0000000000000000e+00  0.0000000000000000e+00  0.0000000000000000e+00  0.0000000000000000e+00  1.4020073648083796e-06  3.7052642171295520e-06  7.1632700038316333e-06  1.2073371129852092e-05  1.8760355045651279e-05  2.7558364972702406e-05  3.8787128766112742e-05  5.2720162361567872e-05  6.9542428840263179e-05  8.9293702307144502e-05  1.1179151769495395e-04  1.3652365677984562e-04  1.6249391142821211e-04  1.8799518693687642e-04  2.1026859317762475e-04  2.2498086514235742e-04  2.2540154562399024e-04  2.0104483520084660e-04  1.3522540886267768e-04  0.0000000000000000e+00  0.0000000000000000e+00  3.7052642171295533e-06  9.6482140135953737e-06  1.8502302050733441e-05  3.1027037191430402e-05  4.8042598361779455e-05  7.0388325221395784e-05  9.8863506729833528e-05  1.3414667125281665e-04  1.7668746039854386e-04  2.2656155773033394e-04  2.8327298746832054e-04  3.4547815766998739e-04  4.1059059142368255e-04  4.7420182391807249e-04  5.2921824067368522e-04  5.6455791870251330e-04  5.6316021637726056e-04  4.9890273483584404e-04  3.3174359662896608e-04  0.0000000000000000e+00  0.0000000000000000e+00  7.1632700038316384e-06  1.8502302050733448e-05  3.5291126372857665e-05  5.8956847755192322e-05  9.1032726855888376e-05  1.3308174181051913e-04  1.8658589773548316e-04  2.5279422830467592e-04  3.3251841693821834e-04  4.2585803177035998e-04  5.3182582107391609e-04  6.4782520433505440e-04  7.6890424117200353e-04  8.8666928865169335e-04  9.8768225071664876e-04  1.0510808136305453e-03  1.0450422789592953e-03  9.2155113717733552e-04  6.0874339244291272e-04  0.0000000000000000e+00  0.0000000000000000e+00  1.2073371129852098e-05  3.1027037191430423e-05  5.8956847755192363e-05  9.8207815717846626e-05  1.5129388241019831e-04  2.2077093615773761e-04  3.0905361988769402e-04  4.1816353396959981e-04  5.4939018246805940e-04  7.0283474338345110e-04  8.7678803210560743e-04  1.0668647385328222e-03  1.2647723202410584e-03  1.4565303514100702e-03  1.6198698332108102e-03  1.7204277994041838e-03  1.7062100801940893e-03  1.4996362295360947e-03  9.8635056412025679e-04  0.0000000000000000e+00  0.0000000000000000e+00  1.8760355045651279e-05  4.8042598361779496e-05  9.1032726855888444e-05  1.5129388241019845e-04  2.3264102237100746e-04  3.3894509639503855e-04  4.7385168330767239e-04  6.4039449954871009e-04  8.4047479387260103e-04  1.0741607298417823e-03  1.3387329551694709e-03  1.6273593932946719e-03  1.9272189790218264e-03  2.2168055786589724e-03  2.4620256619356622e-03  2.6105558241783051e-03  2.5837568020732242e-03  2.2652749774664839e-03  1.4853601003606686e-03  0.0000000000000000e+00  0.0000000000000000e+00  2.7558364972702423e-05  7.0388325221395866e-05  1.3308174181051932e-04  2.2077093615773777e-04  3.3894509639503855e-04  4.9316465725914081e-04  6.8865172864217294e-04  9.2972777121870542e-04  1.2190561308677579e-03  1.5566229333378657e-03  1.9383504526764882e-03  2.3541768126091166e-03  2.7853487636820299e-03  3.2005548802806175e-03  3.5503719507701294e-03  3.7593108356053229e-03  3.7145452124779967e-03  3.2502249462587601e-03  2.1261872849740017e-03  0.0000000000000000e+00  0.0000000000000000e+00  3.8787128766112783e-05  9.8863506729833609e-05  1.8658589773548330e-04  3.0905361988769423e-04  4.7385168330767250e-04  6.8865172864217327e-04  9.6064017266210696e-04  1.2957331793129322e-03  1.6975192270518575e-03  2.1658370446071855e-03  2.6948433106069709e-03  3.2703436806964135e-03  3.8660452404907062e-03  4.4382326396132515e-03  4.9181724287475645e-03  5.2013179139919772e-03  5.1321437626295919e-03  4.4832354880656447e-03  2.9271815572242555e-03  0.0000000000000000e+00  0.0000000000000000e+00  5.2720162361567885e-05  1.3414667125281670e-04  2.5279422830467603e-04  4.1816353396960002e-04  6.4039449954871052e-04  9.2972777121870618e-04  1.2957331793129326e-03  1.7462504555284509e-03  2.2859623691977395e-03  2.9144767888629555e-03  3.6237241971008656e-03  4.3943721537717979e-03  5.1908096892906014e-03  5.9540566399427950e-03  6.5917056873992528e-03  6.9637205085764696e-03  6.8626246451700809e-03  5.9863867289255126e-03  3.9022469052193117e-03  0.0000000000000000e+00  0.0000000000000000e+00  6.9542428840263247e-05  1.7668746039854407e-04  3.3251841693821861e-04  5.4939018246805962e-04  8.4047479387260114e-04  1.2190561308677579e-03  1.6975192270518571e-03  2.2859623691977391e-03  2.9903275306243319e-03  3.8098886453011276e-03  4.7338480711606613e-03  5.7366588273398784e-03  6.7715041357916551e-03  7.7611204326736398e-03  8.5848476905393892e-03  9.0604494764227866e-03  8.9189080333968510e-03  7.7701483441976445e-03  5.0576134148807139e-03  0.0000000000000000e+00  0.0000000000000000e+00  8.9293702307144569e-05  2.2656155773033413e-04  4.2585803177036020e-04  7.0283474338345120e-04  1.0741607298417821e-03  1.5566229333378650e-03  2.1658370446071841e-03  2.9144767888629550e-03  3.8098886453011276e-03  4.8508889315892955e-03  6.0234295120241785e-03  7.2946547996142483e-03  8.6046453752696359e-03  9.8548467364537786e-03  1.0891820702106937e-02  1.1484556749270848e-02  1.1293197278077838e-02  9.8267665114359151e-03  6.3875109926801862e-03  0.0000000000000000e+00  0.0000000000000000e+00  1.1179151769495402e-04  2.8327298746832070e-04  5.3182582107391642e-04  8.7678803210560765e-04  1.3387329551694707e-03  1.9383504526764876e-03  2.6948433106069691e-03  3.6237241971008617e-03  4.7338480711606587e-03  6.0234295120241751e-03  7.4746604603759129e-03  9.0463472738759459e-03  1.0663715085406745e-02  1.2204177457862715e-02  1.3477449643393714e-02  1.4197928219306058e-02  1.3946840369800258e-02  1.2121408679874561e-02  7.8683788890912872e-03  0.0000000000000000e+00  0.0000000000000000e+00  1.3652365677984562e-04  3.4547815766998734e-04  6.4782520433505429e-04  1.0668647385328215e-03  1.6273593932946706e-03  2.3541768126091136e-03  3.2703436806964109e-03  4.3943721537717936e-03  5.7366588273398715e-03  7.2946547996142388e-03  9.0463472738759425e-03  1.0941362946896507e-02  1.2888689129055959e-02  1.4739607372985014e-02  1.6263961600599456e-02  1.7117383813805072e-02  1.6796666778899884e-02  1.4580259113130024e-02  9.4510971962172528e-03  0.0000000000000000e+00  0.0000000000000000e+00  1.6249391142821208e-04  4.1059059142368239e-04  7.6890424117200310e-04  1.2647723202410574e-03  1.9272189790218240e-03  2.7853487636820260e-03  3.8660452404907005e-03  5.1908096892905944e-03  6.7715041357916490e-03  8.6046453752696306e-03  1.0663715085406738e-02  1.2888689129055953e-02  1.5171635318507124e-02  1.7336784110528154e-02  1.9112964697015494e-02  2.0095781041226304e-02  1.9696495234444618e-02  1.7074479044005178e-02  1.1050562566442200e-02  0.0000000000000000e+00  0.0000000000000000e+00  1.8799518693687640e-04  4.7420182391807227e-04  8.8666928865169280e-04  1.4565303514100683e-03  2.2168055786589689e-03  3.2005548802806123e-03  4.4382326396132455e-03  5.9540566399427907e-03  7.7611204326736372e-03  9.8548467364537717e-03  1.2204177457862706e-02  1.4739607372985014e-02  1.7336784110528154e-02  1.9793923709958337e-02  2.1800764959686355e-02  2.2896290564785673e-02  2.2412131174124203e-02  1.9398678927177480e-02  1.2531798189744522e-02  0.0000000000000000e+00  0.0000000000000000e+00  2.1026859317762467e-04  5.2921824067368479e-04  9.8768225071664854e-04  1.6198698332108082e-03  2.4620256619356609e-03  3.5503719507701259e-03  4.9181724287475602e-03  6.5917056873992450e-03  8.5848476905393822e-03  1.0891820702106928e-02  1.3477449643393697e-02  1.6263961600599442e-02  1.9112964697015487e-02  2.1800764959686362e-02  2.3984678552166079e-02  2.5157588084626925e-02  2.4587882424974367e-02  2.1242431367733829e-02  1.3691808101722694e-02  0.0000000000000000e+00  0.0000000000000000e+00  2.2498086514235723e-04  5.6455791870251254e-04  1.0510808136305445e-03  1.7204277994041818e-03  2.6105558241783021e-03  3.7593108356053172e-03  5.2013179139919702e-03  6.9637205085764610e-03  9.0604494764227762e-03  1.1484556749270840e-02  1.4197928219306048e-02  1.7117383813805058e-02  2.0095781041226304e-02  2.2896290564785680e-02  2.5157588084626935e-02  2.6347470033065094e-02  2.5702646772207564e-02  2.2153675194901842e-02  1.4236841683519932e-02  0.0000000000000000e+00  0.0000000000000000e+00  2.2540154562398988e-04  5.6316021637725937e-04  1.0450422789592937e-03  1.7062100801940859e-03  2.5837568020732186e-03  3.7145452124779888e-03  5.1321437626295832e-03  6.8626246451700687e-03  8.9189080333968405e-03  1.1293197278077828e-02  1.3946840369800245e-02  1.6796666778899867e-02  1.9696495234444614e-02  2.2412131174124210e-02  2.4587882424974367e-02  2.5702646772207564e-02  2.5014401705187966e-02  2.1494242607355083e-02  1.3756308851501229e-02  0.0000000000000000e+00  0.0000000000000000e+00  2.0104483520084628e-04  4.9890273483584307e-04  9.2155113717733411e-04  1.4996362295360919e-03  2.2652749774664796e-03  3.2502249462587540e-03  4.4832354880656369e-03  5.9863867289255022e-03  7.7701483441976332e-03  9.8267665114359030e-03  1.2121408679874546e-02  1.4580259113130010e-02  1.7074479044005175e-02  1.9398678927177480e-02  2.1242431367733822e-02  2.2153675194901853e-02  2.1494242607355090e-02  1.8391495965741651e-02  1.1699041563929995e-02  0.0000000000000000e+00  0.0000000000000000e+00  1.3522540886267746e-04  3.3174359662896554e-04  6.0874339244291174e-04  9.8635056412025462e-04  1.4853601003606649e-03  2.1261872849739974e-03  2.9271815572242486e-03  3.9022469052193047e-03  5.0576134148807052e-03  6.3875109926801793e-03  7.8683788890912820e-03  9.4510971962172476e-03  1.1050562566442195e-02  1.2531798189744514e-02  1.3691808101722689e-02  1.4236841683519933e-02  1.3756308851501231e-02  1.1699041563929997e-02  7.3698906239656123e-03  0.0000000000000000e+00  0.0000000000000000e+00  0.0000000000000000e+00  0.0000000000000000e+00  0.0000000000000000e+00  0.0000000000000000e+00  0.0000000000000000e+00  0.0000000000000000e+00  0.0000000000000000e+00  0.0000000000000000e+00  0.0000000000000000e+00  0.0000000000000000e+00  0.0000000000000000e+00  0.0000000000000000e+00  0.0000000000000000e+00  0.0000000000000000e+00  0.0000000000000000e+00  0.0000000000000000e+00  0.0000000000000000e+00  0.0000000000000000e+00  0.0000000000000000e+00  0.0000000000000000e+00  </DataArray> 
</PointData> 
</Piece>
</UnstructuredGrid>
</VTKFile>