<?xml version="1.0"?>
<VTKFile type="UnstructuredGrid"  version="0.1"  >
<UnstructuredGrid>
<Piece  NumberOfPoints="11884" NumberOfCells="23245">
<Points>
<DataArray  type="Float64"  NumberOfComponents="3"  format="ascii">0 1 0  0 0 0  2 0 0  2 1 0  1.698973864678379 0.5202336643974864 0  1.7 0.5 0  1.698973864678379 0.4797663356025136 0  1.695905988250499 0.4597402959822678 0  1.69082785128001 0.4401273754053283 0  1.683791562324046 0.4211288289773363 0  1.674869323228916 0.4029396074937837 0  1.664152688241455 0.3857463569810415 0  1.651751624538558 0.3697255034555556 0  1.637793383815137 0.355041442554176 0  1.622421196509533 0.3418448526124602 0  1.605792802065392 0.3302711485010498 0  1.588078830311527 0.3204390920858516 0  1.569461050568964 0.3124495735705839 0  1.550130506451744 0.3063845762267591 0  1.530285555500915 0.3023063351343777 0  1.510129833767743 0.3002566985657894 0  1.489870166232257 0.3002566985657894 0  1.469714444499085 0.3023063351343777 0  1.449869493548256 0.3063845762267592 0  1.430538949431036 0.3124495735705839 0  1.411921169688473 0.3204390920858516 0  1.394207197934608 0.3302711485010498 0  1.377578803490467 0.3418448526124602 0  1.362206616184863 0.355041442554176 0  1.348248375461442 0.3697255034555555 0  1.335847311758545 0.3857463569810416 0  1.325130676771084 0.4029396074937838 0  1.316208437675954 0.4211288289773363 0  1.30917214871999 0.4401273754053284 0  1.304094011749501 0.459740295982268 0  1.301026135321621 0.4797663356025136 0  1.3 0.5 0  1.301026135321621 0.5202336643974865 0  1.304094011749501 0.540259704017732 0  1.30917214871999 0.5598726245946716 0  1.316208437675954 0.5788711710226637 0  1.325130676771084 0.5970603925062162 0  1.335847311758545 0.6142536430189585 0  1.348248375461442 0.6302744965444445 0  1.362206616184863 0.6449585574458241 0  1.377578803490467 0.6581551473875398 0  1.394207197934608 0.6697288514989502 0  1.411921169688473 0.6795609079141484 0  1.430538949431036 0.6875504264294161 0  1.449869493548256 0.6936154237732408 0  1.469714444499085 0.6976936648656222 0  1.489870166232258 0.6997433014342106 0  1.510129833767743 0.6997433014342106 0  1.530285555500915 0.6976936648656222 0  1.550130506451744 0.6936154237732408 0  1.569461050568964 0.6875504264294161 0  1.588078830311527 0.6795609079141484 0  1.605792802065392 0.6697288514989502 0  1.622421196509533 0.6581551473875398 0  1.637793383815137 0.644958557445824 0  1.651751624538558 0.6302744965444445 0  1.664152688241455 0.6142536430189585 0  1.674869323228916 0.5970603925062162 0  1.683791562324046 0.5788711710226637 0  1.69082785128001 0.5598726245946716 0  1.695905988250499 0.540259704017732 0  2 0.5 0  1 0 0  1 1 0  1.5 0 0  1.5 1 0  0.5 0 0  0.5 1 0  0 0.5 0  0.5 0.5 0  0.8979451520621882 0.3979451520621882 0  0 0.25 0  0.25 0 0  0.25 1 0  0 0.75 0  0.7708303839752197 0.7291696160247803 0  1.060487450065458 0.7155911983023616 0  0.75 0 0  0.2916666666666666 0.7083333333333334 0  0.375 0.25 0  0.6539539170268753 0.2621808755403131 0  1.25 1 0  1.25 0 0  1.75 1 0  1.75 0 0  1.112692937705768 0.2409594089613299 0  2 0.25 0  2 0.75 0  0.75 1 0  0.5303804697827851 0.7387138031161185 0  0.2464080459770115 0.4633620689655173 0  0.8553918969027863 0.187291729613026 0  1.085402918473043 0.5024315416394216 0  0.7023836171233588 0.4622733382543529 0  1.79160099748236 0.20839900251764 0  1.794877707231097 0.780302162265984 0  0.1875 0.1875 0  1.240861390876714 0.8018603484044563 0  1.375 0.1361568683804299 0  1.625 0.86384313161957 0  0.3942533393944628 0.8552952337658599 0  0.1309523809523809 0.625 0  1.866695531309557 0.375 0  1.625 0.133304468690443 0  0.9135340366856546 0.5903783721812751 0  0.875 0.8733978721656475 0  0.1614583333333333 0.8385416666666667 0  1.861691627266289 0.6139916217495461 0  0.625 1 0  1.375 1 0  0 0.375 0  0.6460409596115246 0.6189475511056312 0  1.427950053189037 0.8505991009566451 0  1.096547023637989 0.8718968415867947 0  0.6548710671350823 0.8414074186700786 0  0.625 0 0  0.518434142412921 0.1654670712064605 0  2 0.875 0  2 0.125 0  0.4227838789699086 0.631117212303242 0  1.174244366048091 0.6208518683223968 0  0.9150745817949225 0.7347211404405644 0  0.5833057533781096 0.3851874285470316 0  1.264198615263525 0.2394969012883426 0  0.2478918251154796 0.3188245246535611 0  1.171670737509109 0.3792751658987548 0  0.375 0 0  0.3848106957971396 0.4013446521014302 0  1.875 1 0  1.875 0 0  0.7226771605697627 0.1386736503906993 0  0.7866686533598989 0.3107989547626397 0  1.187322699694695 0.1238851689280521 0  1.033847294562251 0.3745258129875347 0  0.7787025857173402 0.5945049320634191 0  0.9978707442331234 0.1478278840777184 0  0.125 0 0  0 0.125 0  0.3125 0.125 0  0.5252859400442395 0.8705307571577421 0  0.1336939659884776 0.3899285918080404 0  0.9473047687541473 0.278349495709411 0  1.500408963266212 0.1705744589102492 0  2 0.625 0  1.125 0 0  0.875 1 0  1.625 0 0  2 0.375 0  0 0.625 0  0.375 1 0  1.375 0 0  0.875 0 0  1.625 1 0  0.125 1 0  0 0.875 0  1.125 1 0  0.2515394088669951 0.589080459770115 0  0.4960860242731235 0.2915019977398662 0  1.3125 0.8978367996372491 0  1.879600142406784 0.4948183868835845 0  0.1373590039176865 0.507523027663466 0  1.875396467257815 0.8753964672578145 0  0.2753984013887208 0.8810651239696262 0  0.3583608519767832 0.5237399493056075 0  0.8178212500450106 0.4837871725870475 0  0.9854859025398142 0.8301972025150728 0  0.4171881142387189 0.7443095678473082 0  1.877937327755065 0.1220626722449352 0  1.740177034599891 0.8835609549694374 0  0.5334847941946562 0.6080147451808329 0  0.6591734692896026 0.7298314625966634 0  0.7608262314608485 0.8856790900669238 0  1.680188243488547 0.2411164862966956 0  1.764155555865517 0.3209946268764028 0  1.679625115443943 0.7604306959570221 0  0.423854184605871 0.1025520923029355 0  0.1800595238095238 0.7269345238095238 0  0.9700685320813959 0.4889505185160206 0  1.028868423077302 0.603859395304676 0  1.192850367067706 0.514357715613352 0  1.888680779705458 0.2648655293601784 0  1.773249043438072 0.1037107182006467 0  1.762997493137722 0.6709182956913284 0  0.1128401347701896 0.2760204043105687 0  1.891122068382689 0.7223913117634155 0  0.6151273515693181 0.1106910846263306 0  0.8163099567485405 0.08852785149487553 0  0.6021957829210146 0.4865224613743478 0  0.6939668469296923 0.3584033933047285 0  1.257597909079549 0.6929379047209219 0  1.348579096223659 0.7718237852801478 0  1.529766295043803 0.8082523174852182 0  1.140797873790022 0.7793759321223492 0  1.200788012206832 0.9029891867672667 0  0.4838218861545398 0.3903625705092696 0  0.28125 0.21875 0  0.109375 0.109375 0  0.21875 0.09375 0  0.8454916105431659 0.6659717096016988 0  1.087613635217926 0.09642676582788327 0  1.535752578405105 0.9073658622369019 0  0.9375 0.07302905065868745 0  1.785607914082173 0.4260509875683541 0  1.582341568352376 0.2175849061081068 0  1.283468886058964 0.09473070143016181 0  1.36303112168044 0.234394560524008 0  1.793128428267754 0.5449056235020647 0  1.456359269732076 0.0853923511783965 0  0.07073252688172042 0.8125 0  0.0924753097241701 0.9078102849914793 0  0.1875 0.9292674731182796 0  0.7682628706575021 0.21968392479392 0  1.689066235663035 0.06812089822275402 0  1.5625 0.06665223434522151 0  0.08629472740800861 0.7093098958333333 0  0.2427141098421804 0.7947306254498873 0  0.06546244851676387 0.5625 0  0.4527178439403957 0.9235617251706857 0  0.3374124502762502 0.7856867496593305 0  0.07244843346474747 0.1935015593614702 0  0.8407804668618366 0.7883804554219618 0  0.9375 0.9366989360828237 0  0.6875 0.9364081484450741 0  1.935253831461142 0.5641138319037696 0  1.937429315865514 0.1875 0  1.8125 0.9374987385085876 0  1.928483711053007 0.8035419783483723 0  0.3373417044517646 0.6093653262207313 0  0.7750283570698374 0.4021943662398121 0  2 0.9375 0  0.6018261377893155 0.9147146521504367 0  0.9815243403789714 0.6775971578925968 0  0.07158461019770647 0.4507186710011561 0  1.9375 0 0  1.019104713029961 0.9094058851236668 0  2 0.4375 0  0.6875 0 0  1.02397197994164 0.2329956872895971 0  1.255657062746488 0.3343568140182954 0  1.180051781529707 0.2939695540071484 0  1.104388962334581 0.3296004014243565 0  0.5838265869155305 0.6745968436379023 0  0.7146317133040128 0.667043650085112 0  0.6677533729490804 0.5382877110744301 0  0.5049359339735974 0.08321048302766 0  0.4351540067928767 0.1881135099931097 0  0.5680402441708845 0.2392618820870165 0  0.4656673263165335 0.8121901425102644 0  1.718985137717654 0.1671759310717096 0  1.4375 1 0  0.8715287402118453 0.3170588502721854 0  1.672621580189108 0.931921565809785 0  1.060804454073283 0.7976432689785894 0  1.141028618294955 0.6966341993197843 0  0.8125 1 0  0.5981616234114435 0.7833497566089633 0  0.732195309431751 0.8052745174117424 0  0.3353506138687095 0.3285605215423964 0  0.4182766006288239 0.3211273960747205 0  0.3028379014737833 0.4038516057317523 0  1.456768288899456 0.7763140225372908 0  1.389370295940228 0.9210094415426482 0  1.598162164902742 0.7638673233440213 0  1.933347765654778 0.3310436398456734 0  0.6541421681647213 0.181412141624312 0  0.2268832101806239 0.6637546182266011 0  0.3125 1 0  0.346623148702668 0.9225911511773774 0  1.231253662158137 0.4304167521341539 0  0.0625 0 0  0.7508992867264177 0.5224119450006208 0  0.9892104547763173 0.7537490673206489 0  0.8943342175527331 0.4748890995358561 0  0.4356369246019441 0.5503912432142598 0  0.4191554228232365 0.4728221873796772 0  0.3643745672810942 0.6818651672780586 0  0.489149578067618 0.6723481040184091 0  1.188122303811521 0.2067186239145147 0  1.304029865240875 0.1711332983515724 0  1.427007907485215 0.1923412646022086 0  1.074055283951396 0.173221612474465 0  1.101214724205108 0.4217149349018773 0  0 0.3125 0  0.07197179300639558 0.34236541773817 0  1.235527625173731 0.5766864619018883 0  1.133524648448154 0.5588651314280451 0  0.9352335932234221 0.1986171423824196 0  1.015262196477668 0.07414910731327649 0  1.033045060636793 0.4502679987366521 0  1.864144619093824 0.1953639772769931 0  1.922397783935594 0
[...]
<PointData  Scalars="f_7827"> 
<DataArray  type="Float64"  Name="f_7827"  format="ascii">0.0000000000000000e+00  0.0000000000000000e+00  0.0000000000000000e+00  0.0000000000000000e+00  0.0000000000000000e+00  0.0000000000000000e+00  0.0000000000000000e+00  0.0000000000000000e+00  0.0000000000000000e+00  0.0000000000000000e+00  0.0000000000000000e+00  0.0000000000000000e+00  0.0000000000000000e+00  0.0000000000000000e+00  0.0000000000000000e+00  0.0000000000000000e+00  0.0000000000000000e+00  0.0000000000000000e+00  0.0000000000000000e+00  0.0000000000000000e+00  0.0000000000000000e+00  0.0000000000000000e+00  0.0000000000000000e+00  0.0000000000000000e+00  0.0000000000000000e+00  0.0000000000000000e+00  0.0000000000000000e+00  0.0000000000000000e+00  0.0000000000000000e+00  0.0000000000000000e+00  0.0000000000000000e+00  0.0000000000000000e+00  0.0000000000000000e+00  0.0000000000000000e+00  0.0000000000000000e+00  0.0000000000000000e+00  0.0000000000000000e+00  0.0000000000000000e+00  0.0000000000000000e+00  0.0000000000000000e+00  0.0000000000000000e+00  0.0000000000000000e+00  0.0000000000000000e+00  0.0000000000000000e+00  0.0000000000000000e+00  0.0000000000000000e+00  0.0000000000000000e+00  0.0000000000000000e+00  0.0000000000000000e+00  0.0000000000000000e+00  0.0000000000000000e+00  0.0000000000000000e+00  0.0000000000000000e+00  0.0000000000000000e+00  0.0000000000000000e+00  0.0000000000000000e+00  0.0000000000000000e+00  0.0000000000000000e+00  0.0000000000000000e+00  0.0000000000000000e+00  0.0000000000000000e+00  0.0000000000000000e+00  0.0000000000000000e+00  0.0000000000000000e+00  0.0000000000000000e+00  0.0000000000000000e+00  0.0000000000000000e+00  0.0000000000000000e+00  0.0000000000000000e+00  0.0000000000000000e+00  0.0000000000000000e+00  0.0000000000000000e+00  0.0000000000000000e+00  3.1398695194712292e+02  2.6422701435290082e+02  2.1907583826331080e+02  2.7006534723086594e+02  0.0000000000000000e+00  0.0000000000000000e+00  2.6982890704633621e+02  2.0292989546420768e+02  1.7999492270023299e+02  0.0000000000000000e+00  2.5688877889277410e+02  2.3312161432575800e+02  2.1103489464092198e+02  0.0000000000000000e+00  0.0000000000000000e+00  0.0000000000000000e+00  0.0000000000000000e+00  1.6001095179345413e+02  0.0000000000000000e+00  0.0000000000000000e+00  0.0000000000000000e+00  2.2252899698522157e+02  2.8876391190375921e+02  1.5588560398078445e+02  2.0600237443883606e+02  2.4337255108140016e+02  6.3328827808118660e+01  6.0434370038625872e+01  2.1701346966660986e+02  1.3044742971956623e+02  8.8893394969846426e+01  7.2826715800751330e+01  1.6433617709779588e+02  2.9200422037569911e+02  6.8511261393545109e+00  7.1688068904147514e+01  2.1872109044317889e+02  1.1310025086967889e+02  1.9996109126967011e+02  5.1154066071310087e+00  0.0000000000000000e+00  0.0000000000000000e+00  3.0507096619971799e+02  2.4180483734557251e+02  9.2812588652280851e+01  1.0029110283849187e+02  1.5335296729689662e+02  0.0000000000000000e+00  1.7016404971724950e+02  0.0000000000000000e+00  0.0000000000000000e+00  2.6208800501842256e+02  1.8939952049199746e+02  1.8722582495603308e+02  2.4867951144334839e+02  1.4623692523630166e+02  2.6916899038851977e+02  1.8973284276308090e+02  0.0000000000000000e+00  2.7037141007831895e+02  0.0000000000000000e+00  0.0000000000000000e+00  1.3313657417972425e+02  2.1395487971797584e+02  9.2244655133500714e+01  2.0259611701230253e+02  2.3167708374774273e+02  1.2002945461970954e+02  0.0000000000000000e+00  1.8297936150747876e+02  1.5366848080514484e+02  1.4024423322022301e+02  2.9394308404398799e+02  1.8882666198112139e+02  9.7735125819500382e+01  0.0000000000000000e+00  0.0000000000000000e+00  0.0000000000000000e+00  0.0000000000000000e+00  0.0000000000000000e+00  3.0501278706580274e+02  0.0000000000000000e+00  0.0000000000000000e+00  0.0000000000000000e+00  0.0000000000000000e+00  0.0000000000000000e+00  1.8268310806330643e+02  0.0000000000000000e+00  2.8458949661076059e+02  2.3681767990393635e+02  7.1578752371000945e+01  3.0513172360265800e-01  3.0028536086940215e+02  4.9920187786301682e+01  1.5066003469760813e+02  2.7801558531208775e+02  2.3247855887383017e+02  1.3483483899984560e+02  2.3126888952459703e+02  4.9102177584762998e+01  5.6701885791003953e+01  2.5443120624290700e+02  2.1341682957404359e+02  1.1057588514734209e+02  6.4737458600311172e+01  1.8015072198632591e+01  6.5579514120329037e+01  1.2230622862429129e+02  2.6148656980831828e+02  2.1740827718079214e+02  2.0585456481433422e+02  1.9523527138408491e+02  3.9692175599306758e+01  4.9736215701367648e+01  1.4909569915514245e+01  2.6934263427273214e+02  3.5154333318768032e+01  1.1695653342724015e+02  8.5123534910934794e+01  2.5396905328451658e+02  2.3352429533848905e+02  1.6774078983108993e+02  1.3466409911282452e+02  1.0155436221797272e+02  1.4890772193768791e+02  7.3303452665128091e+01  2.5923014475915488e+02  2.2698171837854031e+02  1.5584757630858780e+02  1.2829587309448394e+02  2.1369876962305628e+02  7.8261674194189979e+01  5.6110110750278963e+01  6.6107888885664622e+01  7.0094592105201636e-01  9.2170019908392433e+01  6.8069753658374665e+01  1.3580933030532191e+02  2.3660983421441059e-01  5.5015062809074045e+01  2.2815447702027538e+02  1.3730656102986640e+02  1.0213923749399687e+02  1.8124797048625706e+02  3.7066518179938988e+01  4.0240315845998254e+01  2.7688088925889099e+02  2.2273291266491867e+02  3.0534527310021804e+02  9.2189761007261708e+01  2.1877908096986684e+02  2.3228206513295737e+02  1.7047769989784527e+02  5.7589708529454334e+01  6.7258489722419284e+01  2.0095941596048883e+00  5.2136162361738187e+01  3.0207661935105481e+01  5.2310741259201933e+01  2.7372741295902142e+02  2.3173252199908606e+02  0.0000000000000000e+00  9.3220715510922986e+01  1.9780832711178107e+02  3.0557930749983205e+02  0.0000000000000000e+00  7.6966350128477956e+01  0.0000000000000000e+00  0.0000000000000000e+00  1.6455183951767060e+02  1.7408914937137885e+02  1.7166613441045874e+02  1.8763234947375059e+02  2.3747462918575357e+02  2.2631758481286946e+02  2.4677024297723463e+02  9.6696182785700003e+01  1.9360931567598351e+02  2.0951955164090344e+02  1.9035627666316148e+02  7.2563059947073356e+01  0.0000000000000000e+00  2.0729925836114518e+02  3.7574410694342326e+01  1.4694883371615398e+02  1.7778259794206571e+02  0.0000000000000000e+00  1.9519186791970324e+02  1.7064919784020722e+02  2.6290863602662512e+02  2.5288068459281513e+02  2.7880234212050374e+02  1.2021963317316646e+02  5.3424337085072324e+01  8.0967210848883497e+01  1.7771234172187565e+01  1.6936577106730655e+02  2.7529684012650785e+02  0.0000000000000000e+00  9.9637327159831585e+01  1.8910103745914367e+02  0.0000000000000000e+00  2.3900165032714608e+02  1.7307361495864140e+02  2.2469033411535861e+02  2.6928213619094583e+02  2.7189948649902914e+02  2.5731579838482054e+02  2.4734898622889509e+02  1.3876055280531358e+02  1.1240149414832025e+02  1.1345445619309069e+02  1.3026528356135276e+02  2.0129243373623837e+02  2.9199710222731596e+02  2.9204963976847444e+02  1.8809137771119669e+02  1.9946355885776416e+02  1.5559348190922719e+02  6.3970328754082814e+01  2.0996112945289244e+02  5.7905736986618457e+01  2.2017864461406247e+00  5.4246299852437716e+01  2.3259958722647306e+02  1.5830499763086442e+02  1.9496783732273352e+02  0.0000000000000000e+00  1.3967112319746082e+01  0.0000000000000000e+00  1.5976251041442626e+02  2.9292469681855387e+01  2.1392590431700785e+02  2.8611701798370802e+02  2.4997615190085517e+02  1.5310486600026036e+02  2.2828125742098501e+02  7.9239680631443747e+01  1.9027720995397178e+02  2.4549812920097477e+02  2.5865975675126435e+02  2.7458538007857794e+02  2.0939005815435499e+02  1.9115526413094472e+02  6.0941365385335224e+01  1.0742499440510316e+02  2.9352186071860086e+02  1.9344587330440794e+02  1.8744874080386694e+02  9.0644008798722751e+01  8.5464764613792539e+01  0.0000000000000000e+00  0.0000000000000000e+00  1.0685855607959051e+02  1.3912033580687157e+02  2.5760553679079476e+02  2.9500706741180142e+02  0.0000000000000000e+00  2.0669570303563989e+02  3.7095286209638395e+01  3.9179545455282444e+01  0.0000000000000000e+00  4.8341581438769445e+01  2.4926317277768692e+02  5.1936446052216105e+01  3.3369061885385705e+01  1.1688255956531643e+02  7.5947606041400078e+01  1.6990951084813068e+02  3.8606734340130345e+01  2.0693611069669589e+02  4.6391122260991338e+01  2.6212086585980927e+01  5.8576753550633335e+01  5.9782007033564206e+01  7.7221652167591643e+01  2.3867462416715063e+02  6.9866336379106684e+01  0.0000000000000000e+00  9.2401601428984804e+01  4.9886292874568909e+01  0.0000000000000000e+00  2.7863291488508770e+02  1.8854592404579967e+02  0.0000000000000000e+00  1.5277515322661716e+02  1.1271106525280894e+02  2.9523240663831535e+02  1.9326637385884926e+01  2.2046706332960522e+02  0.0000000000000000e+00  1.0664614420218037e+02  1.9675420336468031e+02  1.0842281122694693e+02  8.5679202705619133e+01  1.3152714503667298e+00  9.3517712843724425e+01  5.9954178797519852e+01  2.1158429125132989e+02  2.2117163001393337e+02  2.1026442818850950e+02  2.4530160631638219e+02  1.7408940823960243e+01  0.0000000000000000e+00  2.8524262763704616e+02  3.6506825156417307e+01  8.4765302051481115e+01  1.5056567988278118e+02  1.0219954349890223e+02  5.5016753296250158e+01  0.0000000000000000e+00  0.0000000000000000e+00  0.0000000000000000e+00  0.0000000000000000e+00  0.0000000000000000e+00  2.3536546473557294e+02  0.0000000000000000e+00  3.1188861835627807e+02  3.1185344354950473e+02  0.0000000000000000e+00  0.0000000000000000e+00  0.0000000000000000e+00  2.9189779978921115e+02  2.3506763704892887e+02  0.0000000000000000e+00  0.0000000000000000e+00  0.0000000000000000e+00  0.0000000000000000e+00  0.0000000000000000e+00  0.0000000000000000e+00  0.0000000000000000e+00  0.0000000000000000e+00  0.0000000000000000e+00  0.0000000000000000e+00  0.0000000000000000e+00  0.0000000000000000e+00  1.5765174841431070e+02  1.4594700972372954e+02  9.0415937742991147e+01  2.9378606195024128e+02  2.7771591948762556e+01  7.6362370739837232e+01  1.2127210075855101e+02  2.1427225113059939e+02  2.7297461554349098e+02  4.3241287310222617e+01  5.9844612114140730e+01  1.9560375638258000e+02  2.4695406067974341e+02  4.6730745046025746e+01  4.2690137777502294e+01  2.2737409433023606e+02  1.8278109589323347e+02  1.6294256958612436e+02  5.2238430523425258e+01  2.2263224872049192e+00  8.4796356903476706e+01  6.6180838848625797e+01  1.0068095595803788e+00  1.1624732786413558e-01  2.2212882059981797e-02  6.4268892569691449e-01  1.0186092347695250e+00  1.8522894928864420e+02  1.3097029086592272e+02  5.6558292572664350e+01  4.8450555276024758e+01  2.3220498262366777e+02  1.1344649967880086e+02  1.4336191749001659e+02  8.2098165516359529e+01  1.8781754153400482e+02  1.0920602787662204e+02  1.1631104729854009e+02  2.7721628192369667e+02  1.8126445766409637e+02  2.5056411687937765e+02  1.3837902038979382e+02  2.3752529721155815e+02  7.0043585942107057e+01  2.2393715032092678e+02  3.4311415053315606e+01  1.7663639390470078e+02  3.0084182536291628e+01  1.9585721443588355e+02  6.5928259158220825e+01  1.5066288018495692e+01  2.4975328022533822e+02  2.0869176522990696e+02  1.6467869756793016e+02  1.0762133890274013e+02  1.3613145551464510e+02  2.7271941136745960e+02  2.9926705182632315e+02  2.9207081380705922e+01  8.4497047999315498e+01  5.6312122394821325e+00  2.0324390478890251e+02  2.3875984881608210e+02  1.9720667328355918e+02  1.5460166418601827e+02  1.9009726603602266e+02  1.0895542053193240e+02  2.6160553122446515e+02  2.3209973576545704e+02  2.5020709049735166e+02  2.0297415897027810e+02  2.3396461636874568e+02  2.5859414836346576e+02  2.7972178213553144e+02  1.7082448172175784e+01  2.0558899606857171e+01  3.4603820320960082e+01  1.4956891802898181e+02  3.0598062577120317e+02  1.1491800198707752e+02  2.4752229619425512e+02  1.8884999867293530e+02  2.1039637648926137e+02  2.3157267242628848e+02  9.0845164442158691e+01  1.7409220595066392e+02  8.7369644190140363e+01  2.6473010664277894e+02  2.0988648809216264e+02  9.3131276496144622e+01  2.2439318236894295e+02  3.6270754201988453e+01  3.4975790172190209e+01  2.2065085364554514e+02  1.2865903077613459e+02  1.7637436645793426e+02  6.7327343688126817e+01  6.4709551074908475e+01  9.0312941899802979e+01  3.0015506342696284e+02  2.0062509723128474e+02  2.8524774492504838e+02  1.4811505477247186e+02  2.4395756010253186e+02  5.3534845014678702e+01  2.9132181426234173e+01  2.9984477311029531e+02  2.8604833433791009e+02  1.8098038442450755e+02  2.6759258972579238e+02  5.5979189510046915e+01  2.6085254881540249e+02  2.3796350374841913e+02  2.2323088945239684e+02  2.2295997043720422e+02  1.9391743326576949e+02  1.9371196784856249e+02  6.3978004797107033e+01  9.7441169731145806e+01  3.8451239704150474e+01  5.0490096595966982e+01  2.4869895674785741e+02  2.5338283373659701e+02  2.5913911648029699e+02  1.6263866975803393e+02  1.3109489841256820e+02  1.8055232242220015e+02  4.0092380267274216e+01  1.9250949983449496e+02  2.6226326529907220e+02  5.0611362524945768e+01  6.0246840060785658e+01  8.8793873432988590e+01  2.6220617155055885e+02  2.7828541005025750e+02  5.5615954799293981e+01  6.5442545319529955e+01  1.4814529290157520e+02  2.3041550662392854e+02  4.8914431561582958e+00  3.1280187929504393e+01  4.0609402708654528e+01  1.0885176569315347e+02  1.4084383976519877e+02  1.3236779023010862e+02  1.5570338384685604e+02  2.5075647614944495e+02  2.9503416274651315e+01  2.3381287542099281e+02  7.2951104595371604e+01  2.5046532006850117e+02  7.8857564135112952e+01  2.3552125311267704e+02  2.5663257781804305e+01  2.8343671347764928e+02  2.8113389119474226e+02  7.2455688755565379e+00  1.6926576363139259e+02  2.4730098386551185e+02  2.5408928007651332e+02  3.8933831482333652e+01  1.4302721517193572e+02  1.1459859744881638e+02  4.1457299361016613e+00  6.7772639315894622e+01  1.4182417158347602e+02  2.2245417375207893e+02  1.9525395040481737e+02  2.2266486732418807e+02  1.8530336475873628e+02  4.2214730964173803e+01  2.1720413782205176e+02  1.4413854780463549e+02  1.9590923555294412e+02  3.6436140401721254e+01  2.1069234393419183e+02  1.9096228291218355e+02  1.5059088808681415e+02  8.2985568033864652e+01  9.9726701891080433e-02  1.3401978252919031e+00  1.8044942128327867e+02  1.2101330106925708e+02  8.2247260354060259e+01  4.3206749252222970e+01  2.0794828088456583e+02  2.3025086732128440e+02  3.8986342025403609e+01  7.0939955337510469e+01  1.0742568563367311e-01  1.2969445222827451e+02  2.2857815925737967e+02  2.6836329327942906e+02  2.8379345172822252e+02  1.3701182891179019e+02  1.6300332382726822e+02  8.7536128624959645e+01  1.5090125320641073e+02  6.7280096074375294e+01  4.5316758246024600e+00  1.8451914261219105e+02  1.9422357755955184e+02  2.8468018594741397e+02  2.1992077735464946e+02  1.5925682087548114e+02  2.3844827323833567e+02  1.0098476520794225e+02  7.7156793849020687e+01  5.1715443697850375e+01  1.4104724623615030e+02  5.0557738358402993e+01  7.3857589629494882e+01  4.2395561885706122e+01  5.9431672608186588e+01  1.6620325339892233e+02  1.9272911428925280e+01  2.0075249647783323e+01  4.4443637253767719e+01  2.9032102423908907e+02  1.9017236009058479e+02  1.6530200269474420e+02  1.9911587540537471e+02  1.5801641841355041e+02  4.4423732459708170e+01  3.2566338990223407e+01  2.8266318496635446e+01  6.7286353814553379e+01  2.2274975054027482e+02  2.2469337734069731e+02  1.2020713019647171e+02  2.5126186032573429e+02  2.0258072817439040e+02  1.7519239808004932e+02  5.0218145799287953e+01  5.1023529558771216e+01  5.6469903108482235e+01  5.0161455588543539e+01  1.0645985462229182e+00  1.8595791845400834e+02  1.3828926280216902e+02  2.1497664815964665e+01  5.2054263960271484e+01  2.9918416143685869e+02  3.0983593885371107e+02  3.0583735902463741e+02  2.8232486944966735e+02  6.3818438082530333e+00  6.0439630841223888e+00  4.8021765096634695e+01  1.9063440367973013e+02  5.6542633345700011e+01  1.2173333867589886e+02  2.8008955044553312e+02  1.9105955176715588e+02  2.2409307949325552e+02  1.9197419813038969e+01  1.7317415172672631e+02  2.0187972011073705e+02  4.2579636941208527e+01  1.8304440124635332e+02  3.0575959205466069e+02  4.7314990169018905e+01  1.5924535523924308e+02  1.0420703767589880e+02  1.7586787342672193e+02  8.6507296757075423e+01  2.1660100247451845e+02  1.9731932630727076e+02  6.2674092373811963e-01  5.0172126666628380e+01  1.9697300260341155e+01  4.7840283672559323e+01  4.5936454374002757e+01  5.2154659793929703e+01  4.0102424035076453e+01  1.6784451079899046e+01  1.9980871446647221e+01  1.2150879450745985e+02  1.0343334559896212e+02  2.8561662564950143e+02  1.9955152213937873e+02  2.6809955043854109e+02  6.9856312020546653e+01  1.9399706804114558e+02  2.5000086742868197e+02  2.7128153723668891e+02  2.6245828589759657e+02  2.6871531135633762e+02  1.1615854421308640e+02  2.3267841861640321e+02  2.0386066002385726e+02  1.8869321785437208e+02  1.8528158545578910e+02  1.5851158992501598e+02  1.1450482861805193e+02  4.9635441624316435e+01  3.0975161768761943e+01  1.5858002440629519e+01  1.5636985195591620e+02  1.8117404985979906e+02  1.9762046548812722e+02  3.0982146087124323e+02  3.3124350384663536e+01  2.8997433084822249e-01  1.2576473451118540e+02  2.2869883600686640e+02  1.8575710225186890e+02  2.1069133447951904e+02  2.0079755791427255e+02  8.8080138611065195e+01  7.5247309976099530e+01  1.4363306773974131e+02  2.6726064057359099e+02  9.1664605599726485e+01  2.7751263473582873e+02  0.0000000000000000e+00  1.6526852150905020e+02  1.8991806378687329e+02  1.4375285131257664e+02  8.6669966498615310e+01  2.6805583239258442e+02  1.6560645058140037e+02  1.0686933407766013e+02  6.1317839923654944e+01  2.0201622183342306e+02  2.1212410393627030e+02  2.1203106240152621e+02  2.8920978918451361e+01  2.2159293342317571e+02  1.2040423793149898e+02  3.0181903106793499e+01  2.4190560274504980e+02  2.4456025389191623e+02  2.1930691334815961e+02  5.6722472518133124e+01  2.1033188705394230e+02  0.0000000000000000e+00  5.9564057110196920e+01  2.8953667928971322e+02  2.1685868038005006e+02  1.3348108573592552e+00  1.9610483402986199e+02  1.5302082849814411e+02  1.6935570696923293e+02  3.8641844925491398e+01  1.1192857523248102e+02  2.1620132483618860e+02  2.3570374774081498e+02  2.2332740515944468e+02  7.8603181751671542e+01  0.0000000000000000e+00  2.2159591525944049e+02  2.5036147826486612e+02  2.4567252997552356e+02  0.0000000000000000e+00  7.8016445602522126e+01  2.4679544713187047e+02  1.0200983805368276e+02  1.2027814728134231e+02  2.1354641267717420e+02  1.6191461771688725e+02  1.0171632081277376e+02  1.3418597629760299e+02  2.7748474326821173e+02  2.4454833930103763e+02  2.4411567905470091e+02  2.5388344240277232e+02  2.3133065944726704e+02  2.4738731157918366e+02  0.0000000000000000e+00  5.6181618467555538e+01  2.4095507482105802e+01  2.1177269449348643e+02  1.9601174354613579e+02  8.1717098156139265e+00  2.0601303922263136e+02  1.6379931896937475e+02  1.8428404271786894e+02  3.8549131829355718e+00  5.4258415249647356e+01  1.2909615960674759e+02  0.0000000000000000e+00  1.9793373472704602e+02  2.4530062705064100e+02  2.7374568124563388e+02  2.6661651919874390e+02  2.6631860721549009e+02  6.7943957300414752e+01  9.6349600944979301e+01  1.1032549836980063e+02  2.1864649686720330e+02  2.0751786694467622e+01  2.5935766468237938e+02  6.6686180340805578e+01  2.3712975876114288e+02  1.0413675452844172e+01  2.0938931460277215e+02  1.7480524022454159e+02  2.0845973229244333e+02  2.5412905642419207e+02  1.0188659219741352e+02  3.7545277896786700e+01  2.2333970586716430e+02  1.1180523343622765e+02  1.6753659541339422e+02  1.4661694911135774e+02  5.5689744899929948e+01  7.4413629804931091e+01  1.5143658779916569e+02  1.6062539281048058e+02  1.9269095461715833e+02  2.2169544921047833e+02  1.9335660600257557e+02  7.7249038827020712e+01  1.7639072589707175e+02  2.7566575722680903e+02  2.0564913862665190e+02  2.1010525952968578e+02  2.1420163069803596e+02  4.5802698217876099e+01  6.1741168003510