<?xml version="1.0"?>
<VTKFile type="UnstructuredGrid"  version="0.1"  >
<UnstructuredGrid>
<Piece  NumberOfPoints="11884" NumberOfCells="23245">
<Points>
<DataArray  type="Float64"  NumberOfComponents="3"  format="ascii">0 1 0  0 0 0  2 0 0  2 1 0  1.698973864678379 0.5202336643974864 0  1.7 0.5 0  1.698973864678379 0.4797663356025136 0  1.695905988250499 0.4597402959822678 0  1.69082785128001 0.4401273754053283 0  1.683791562324046 0.4211288289773363 0  1.674869323228916 0.4029396074937837 0  1.664152688241455 0.3857463569810415 0  1.651751624538558 0.3697255034555556 0  1.637793383815137 0.355041442554176 0  1.622421196509533 0.3418448526124602 0  1.605792802065392 0.3302711485010498 0  1.588078830311527 0.3204390920858516 0  1.569461050568964 0.3124495735705839 0  1.550130506451744 0.3063845762267591 0  1.530285555500915 0.3023063351343777 0  1.510129833767743 0.3002566985657894 0  1.489870166232257 0.3002566985657894 0  1.469714444499085 0.3023063351343777 0  1.449869493548256 0.3063845762267592 0  1.430538949431036 0.3124495735705839 0  1.411921169688473 0.3204390920858516 0  1.394207197934608 0.3302711485010498 0  1.377578803490467 0.3418448526124602 0  1.362206616184863 0.355041442554176 0  1.348248375461442 0.3697255034555555 0  1.335847311758545 0.3857463569810416 0  1.325130676771084 0.4029396074937838 0  1.316208437675954 0.4211288289773363 0  1.30917214871999 0.4401273754053284 0  1.304094011749501 0.459740295982268 0  1.301026135321621 0.4797663356025136 0  1.3 0.5 0  1.301026135321621 0.5202336643974865 0  1.304094011749501 0.540259704017732 0  1.30917214871999 0.5598726245946716 0  1.316208437675954 0.5788711710226637 0  1.325130676771084 0.5970603925062162 0  1.335847311758545 0.6142536430189585 0  1.348248375461442 0.6302744965444445 0  1.362206616184863 0.6449585574458241 0  1.377578803490467 0.6581551473875398 0  1.394207197934608 0.6697288514989502 0  1.411921169688473 0.6795609079141484 0  1.430538949431036 0.6875504264294161 0  1.449869493548256 0.6936154237732408 0  1.469714444499085 0.6976936648656222 0  1.489870166232258 0.6997433014342106 0  1.510129833767743 0.6997433014342106 0  1.530285555500915 0.6976936648656222 0  1.550130506451744 0.6936154237732408 0  1.569461050568964 0.6875504264294161 0  1.588078830311527 0.6795609079141484 0  1.605792802065392 0.6697288514989502 0  1.622421196509533 0.6581551473875398 0  1.637793383815137 0.644958557445824 0  1.651751624538558 0.6302744965444445 0  1.664152688241455 0.6142536430189585 0  1.674869323228916 0.5970603925062162 0  1.683791562324046 0.5788711710226637 0  1.69082785128001 0.5598726245946716 0  1.695905988250499 0.540259704017732 0  1 0 0  2 0.5 0  1 1 0  1.5 0 0  1.5 1 0  0.5 0 0  0.5 1 0  0 0.5 0  0.5 0.5 0  0.8979451520621882 0.3979451520621882 0  0 0.25 0  0.25 0 0  0.25 1 0  0 0.75 0  0.7708303839752197 0.7291696160247803 0  1.060487450065458 0.7155911983023616 0  0.75 0 0  0.2916666666666666 0.7083333333333334 0  0.375 0.25 0  0.6539539170268753 0.2621808755403131 0  1.25 1 0  1.25 0 0  1.75 1 0  1.75 0 0  1.112692937705768 0.2409594089613299 0  2 0.25 0  2 0.75 0  0.75 1 0  0.5303804697827851 0.7387138031161185 0  0.2464080459770115 0.4633620689655173 0  0.8553918969027863 0.187291729613026 0  1.085402918473043 0.5024315416394216 0  0.7023836171233588 0.4622733382543529 0  1.79160099748236 0.20839900251764 0  1.794877707231097 0.780302162265984 0  0.1875 0.1875 0  1.240861390876714 0.8018603484044563 0  1.375 0.1361568683804299 0  1.625 0.86384313161957 0  0.3942533393944628 0.8552952337658599 0  0.1309523809523809 0.625 0  1.866695531309557 0.375 0  1.625 0.133304468690443 0  0.9135340366856546 0.5903783721812751 0  0.875 0.8733978721656475 0  0.1614583333333333 0.8385416666666667 0  1.861691627266289 0.6139916217495461 0  0.625 1 0  1.375 1 0  0 0.375 0  0.6460409596115246 0.6189475511056312 0  1.427950053189037 0.8505991009566451 0  1.096547023637989 0.8718968415867947 0  0.6548710671350823 0.8414074186700786 0  0.625 0 0  0.518434142412921 0.1654670712064605 0  2 0.875 0  2 0.125 0  0.4227838789699086 0.631117212303242 0  1.174244366048091 0.6208518683223968 0  0.9150745817949225 0.7347211404405644 0  0.5833057533781096 0.3851874285470316 0  1.264198615263525 0.2394969012883426 0  0.2478918251154796 0.3188245246535611 0  1.171670737509109 0.3792751658987548 0  0.375 0 0  0.3848106957971396 0.4013446521014302 0  1.875 1 0  1.875 0 0  0.7226771605697627 0.1386736503906993 0  0.7866686533598989 0.3107989547626397 0  1.187322699694695 0.1238851689280521 0  1.033847294562251 0.3745258129875347 0  0.7787025857173402 0.5945049320634191 0  0.9978707442331234 0.1478278840777184 0  0.125 0 0  0 0.125 0  0.3125 0.125 0  0.5252859400442395 0.8705307571577421 0  0.1336939659884776 0.3899285918080404 0  0.9473047687541473 0.278349495709411 0  1.500408963266212 0.1705744589102492 0  2 0.625 0  1.125 0 0  0.875 1 0  1.625 0 0  2 0.375 0  0 0.625 0  0.375 1 0  1.375 0 0  0.875 0 0  1.625 1 0  0.125 1 0  0 0.875 0  1.125 1 0  0.2515394088669951 0.589080459770115 0  0.4960860242731235 0.2915019977398662 0  1.3125 0.8978367996372491 0  1.879600142406784 0.4948183868835845 0  0.1373590039176865 0.507523027663466 0  1.875396467257815 0.8753964672578145 0  0.2753984013887208 0.8810651239696262 0  0.3583608519767832 0.5237399493056075 0  0.8178212500450106 0.4837871725870475 0  0.9854859025398142 0.8301972025150728 0  0.4171881142387189 0.7443095678473082 0  1.877937327755065 0.1220626722449352 0  1.740177034599891 0.8835609549694374 0  0.5334847941946562 0.6080147451808329 0  0.6591734692896026 0.7298314625966634 0  0.7608262314608485 0.8856790900669238 0  1.680188243488547 0.2411164862966956 0  1.764155555865517 0.3209946268764028 0  1.679625115443943 0.7604306959570221 0  0.423854184605871 0.1025520923029355 0  0.1800595238095238 0.7269345238095238 0  0.9700685320813959 0.4889505185160206 0  1.028868423077302 0.603859395304676 0  1.192850367067706 0.514357715613352 0  1.888680779705458 0.2648655293601784 0  1.773249043438072 0.1037107182006467 0  1.762997493137722 0.6709182956913284 0  0.1128401347701896 0.2760204043105687 0  1.891122068382689 0.7223913117634155 0  0.6151273515693181 0.1106910846263306 0  0.8163099567485405 0.08852785149487553 0  0.6021957829210146 0.4865224613743478 0  0.6939668469296923 0.3584033933047285 0  1.257597909079549 0.6929379047209219 0  1.348579096223659 0.7718237852801478 0  1.529766295043803 0.8082523174852182 0  1.140797873790022 0.7793759321223492 0  1.200788012206832 0.9029891867672667 0  0.4838218861545398 0.3903625705092696 0  0.28125 0.21875 0  0.109375 0.109375 0  0.21875 0.09375 0  0.8454916105431659 0.6659717096016988 0  1.087613635217926 0.09642676582788327 0  1.535752578405105 0.9073658622369019 0  0.9375 0.07302905065868745 0  1.785607914082173 0.4260509875683541 0  1.582341568352376 0.2175849061081068 0  1.283468886058964 0.09473070143016181 0  1.36303112168044 0.234394560524008 0  1.793128428267754 0.5449056235020647 0  1.456359269732076 0.0853923511783965 0  0.07073252688172042 0.8125 0  0.0924753097241701 0.9078102849914793 0  0.1875 0.9292674731182796 0  0.7682628706575021 0.21968392479392 0  1.689066235663035 0.06812089822275402 0  1.5625 0.06665223434522151 0  0.08629472740800861 0.7093098958333333 0  0.2427141098421804 0.7947306254498873 0  0.06546244851676387 0.5625 0  0.4527178439403957 0.9235617251706857 0  0.3374124502762502 0.7856867496593305 0  0.07244843346474747 0.1935015593614702 0  0.8407804668618366 0.7883804554219618 0  0.9375 0.9366989360828237 0  0.6875 0.9364081484450741 0  1.935253831461142 0.5641138319037696 0  1.937429315865514 0.1875 0  1.8125 0.9374987385085876 0  1.928483711053007 0.8035419783483723 0  0.3373417044517646 0.6093653262207313 0  0.7750283570698374 0.4021943662398121 0  2 0.9375 0  0.6018261377893155 0.9147146521504367 0  0.9815243403789714 0.6775971578925968 0  0.07158461019770647 0.4507186710011561 0  1.9375 0 0  1.019104713029961 0.9094058851236668 0  2 0.4375 0  0.6875 0 0  1.02397197994164 0.2329956872895971 0  1.255657062746488 0.3343568140182954 0  1.180051781529707 0.2939695540071484 0  1.104388962334581 0.3296004014243565 0  0.5838265869155305 0.6745968436379023 0  0.7146317133040128 0.667043650085112 0  0.6677533729490804 0.5382877110744301 0  0.5049359339735974 0.08321048302766 0  0.4351540067928767 0.1881135099931097 0  0.5680402441708845 0.2392618820870165 0  0.4656673263165335 0.8121901425102644 0  1.718985137717654 0.1671759310717096 0  1.4375 1 0  0.8715287402118453 0.3170588502721854 0  1.672621580189108 0.931921565809785 0  1.060804454073283 0.7976432689785894 0  1.141028618294955 0.6966341993197843 0  0.8125 1 0  0.5981616234114435 0.7833497566089633 0  0.732195309431751 0.8052745174117424 0  0.3353506138687095 0.3285605215423964 0  0.4182766006288239 0.3211273960747205 0  0.3028379014737833 0.4038516057317523 0  1.456768288899456 0.7763140225372908 0  1.389370295940228 0.9210094415426482 0  1.598162164902742 0.7638673233440213 0  1.933347765654778 0.3310436398456734 0  0.6541421681647213 0.181412141624312 0  0.2268832101806239 0.6637546182266011 0  0.3125 1 0  0.346623148702668 0.9225911511773774 0  1.231253662158137 0.4304167521341539 0  0.0625 0 0  0.7508992867264177 0.5224119450006208 0  0.9892104547763173 0.7537490673206489 0  0.8943342175527331 0.4748890995358561 0  0.4356369246019441 0.5503912432142598 0  0.4191554228232365 0.4728221873796772 0  0.3643745672810942 0.6818651672780586 0  0.489149578067618 0.6723481040184091 0  1.188122303811521 0.2067186239145147 0  1.304029865240875 0.1711332983515724 0  1.427007907485215 0.1923412646022086 0  1.074055283951396 0.173221612474465 0  1.101214724205108 0.4217149349018773 0  0 0.3125 0  0.07197179300639558 0.34236541773817 0  1.235527625173731 0.5766864619018883 0  1.133524648448154 0.5588651314280451 0  0.9352335932234221 0.1986171423824196 0  1.015262196477668 0.07414910731327649 0  1.033045060636793 0.4502679987366521 0  1.864144619093824 0.1953639772769931 0  1.922397783935594 0
[...]
<PointData  Scalars="f_86464"> 
<DataArray  type="Float64"  Name="f_86464"  format="ascii">0.0000000000000000e+00  0.0000000000000000e+00  0.0000000000000000e+00  0.0000000000000000e+00  7.8433965729236931e+01  7.8919597799937947e+01  7.8449530351425665e+01  7.7162424990033955e+01  7.5659393142943927e+01  7.4355278878114774e+01  7.3467557991310940e+01  7.3019643242025168e+01  7.2910947254891269e+01  7.3073003701098088e+01  7.3467609473399662e+01  7.4060616612383072e+01  7.4870520043156432e+01  7.5933375143103490e+01  7.7204673804636087e+01  7.8707426902260096e+01  8.0512803731959906e+01  8.2541252784851579e+01  8.4827239213178729e+01  8.7321832828906125e+01  9.0003321838218611e+01  9.2797657363661031e+01  9.5631499999062271e+01  9.8463686460895303e+01  1.0119586989428548e+02  1.0375175972137671e+02  1.0605004439049259e+02  1.0816836563120881e+02  1.0981520054330494e+02  1.1114638935328303e+02  1.1215747632593251e+02  1.1273885997354944e+02  1.1290072384364289e+02  1.1279635164451699e+02  1.1219917336959737e+02  1.1122137922172425e+02  1.0980599554053767e+02  1.0815472050697939e+02  1.0605640369197323e+02  1.0370754325313081e+02  1.0117160326410087e+02  9.8440321480149365e+01  9.5614551234372030e+01  9.2763172022205850e+01  8.9971558496386777e+01  8.7295404191088480e+01  8.4789315805372695e+01  8.2499493068895916e+01  8.0475310969584669e+01  7.8669115369111580e+01  7.7168419226066419e+01  7.5900498516342424e+01  7.4849718361437567e+01  7.4036880384731205e+01  7.3437413157691665e+01  7.3054870655471788e+01  7.2891210500425757e+01  7.3002044849885337e+01  7.3457049320051809e+01  7.4348593552275048e+01  7.5661768790389800e+01  7.7178448916981125e+01  0.0000000000000000e+00  0.0000000000000000e+00  0.0000000000000000e+00  0.0000000000000000e+00  0.0000000000000000e+00  0.0000000000000000e+00  0.0000000000000000e+00  2.4064314417475489e+02  1.9075879728785785e+02  1.4834577146898107e+02  2.1492557409602367e+02  0.0000000000000000e+00  0.0000000000000000e+00  2.1474497950471422e+02  1.4456006331734079e+02  1.1971767030236697e+02  0.0000000000000000e+00  1.9594036478033092e+02  1.7786897271755541e+02  1.5388360561888405e+02  0.0000000000000000e+00  0.0000000000000000e+00  0.0000000000000000e+00  0.0000000000000000e+00  1.0593195329654222e+02  0.0000000000000000e+00  0.0000000000000000e+00  0.0000000000000000e+00  1.6558923315170966e+02  2.1572229671207876e+02  1.1135208906061531e+02  1.3238067375344295e+02  1.7022776871472269e+02  4.4916910155876010e+01  4.6346093569529245e+01  1.7262392882865907e+02  8.3778728883882152e+01  5.4936958343257281e+01  4.0795665541868644e+01  1.2876657199686849e+02  2.2299750025836630e+02  5.6926094958673723e+01  4.0088336769573260e+01  1.4738963098984769e+02  8.1454530117538667e+01  1.6087601549159186e+02  5.8222759461388499e+01  0.0000000000000000e+00  0.0000000000000000e+00  2.3607935852719066e+02  1.7222125150494008e+02  5.5983077391167832e+01  6.8255708660417127e+01  1.1473787633966057e+02  0.0000000000000000e+00  1.3010062661936010e+02  0.0000000000000000e+00  0.0000000000000000e+00  1.9343875460403970e+02  1.1979604370902207e+02  1.2959355054504343e+02  1.7881367240775393e+02  9.2347463080802356e+01  2.0506093595693713e+02  1.2009300985404727e+02  0.0000000000000000e+00  1.9960801928299054e+02  0.0000000000000000e+00  0.0000000000000000e+00  9.8769045283355112e+01  1.5054900594602279e+02  6.1118358874987450e+01  1.3332438112042561e+02  1.6058992900010438e+02  8.3594295836742674e+01  0.0000000000000000e+00  1.5184206623316120e+02  1.2247246290424386e+02  1.0802856822300654e+02  2.2391007452173361e+02  1.2934210114853977e+02  5.7319579525818334e+01  0.0000000000000000e+00  0.0000000000000000e+00  0.0000000000000000e+00  0.0000000000000000e+00  0.0000000000000000e+00  2.3603973253093679e+02  0.0000000000000000e+00  0.0000000000000000e+00  0.0000000000000000e+00  0.0000000000000000e+00  0.0000000000000000e+00  1.5159877100476226e+02  0.0000000000000000e+00  2.1337998569060073e+02  1.7578143396840963e+02  4.5560168160847887e+01  6.3292667609383876e+01  2.2692354383868064e+02  2.5597338675700634e+01  1.2091068023875174e+02  2.0474140419513515e+02  1.5899500533599050e+02  9.3800745592452003e+01  1.7519200987077218e+02  2.5030876256442784e+01  3.0184853584877114e+01  1.8418482305562637e+02  1.5518019501484656e+02  8.1789741829742695e+01  5.8221996543026854e+01  6.0350069848893419e+01  5.7999677316703604e+01  9.6330017136556933e+01  2.0300159074947601e+02  1.4384740436411531e+02  1.3521829561648352e+02  1.2163845696532672e+02  4.5061660623158019e+01  2.5824099820287497e+01  6.1111393555930562e+01  2.1044072341150834e+02  4.6206136275130724e+01  8.9020204712562432e+01  6.2473738708836969e+01  1.8052155579192433e+02  1.6557790463738513e+02  1.0465238302181096e+02  8.2682160311636991e+01  6.0399979589421456e+01  9.8231569725118888e+01  4.8548303132122626e+01  1.8906988914979803e+02  1.7683891485676909e+02  1.2831133611479487e+02  1.0447062440954039e+02  1.4789837951490722e+02  5.3644897532613534e+01  3.2413683018170083e+01  4.7274813283623487e+01  6.7268217011373380e+01  6.1915282692133317e+01  4.3827389730007866e+01  8.2859773440957383e+01  6.8873244996453323e+01  3.3038884537661644e+01  1.8386035389281554e+02  1.1391620140811190e+02  8.4007712945569281e+01  1.3080172498655674e+02  1.9739038029665569e+01  2.2964131021882448e+01  2.1611308910563605e+02  1.7505594723044265e+02  2.3306701583044224e+02  7.2604014724397473e+01  1.6945578491857768e+02  1.8677861725403605e+02  1.2147130845082859e+02  4.1225364545015289e+01  5.0852403007333677e+01  5.6642948932437790e+01  3.2195081672347378e+01  1.4964642794994095e+01  3.3957679880552696e+01  2.0362293155956826e+02  1.6080442360139966e+02  0.0000000000000000e+00  7.1431178970521543e+01  1.3312885603909635e+02  2.3287788901568564e+02  0.0000000000000000e+00  5.3804616591039554e+01  0.0000000000000000e+00  0.0000000000000000e+00  1.1178453819337157e+02  1.0810063306775699e+02  1.1011203481842728e+02  1.2215090832638376e+02  1.7260914911639424e+02  1.6066204730343631e+02  1.7365625191609391e+02  7.5398864394039691e+01  1.4903870496872503e+02  1.5588004574535032e+02  1.4588959502375295e+02  4.2421765230613921e+01  0.0000000000000000e+00  1.4318010999556472e+02  2.0193935404904963e+01  9.9554686496739109e+01  1.1515411387888687e+02  0.0000000000000000e+00  1.4537589630079424e+02  1.2478135135479125e+02  1.9776716377774167e+02  1.8847890467329910e+02  2.0792277372472014e+02  7.2916124194132493e+01  3.3065582208290593e+01  6.3951556510461877e+01  4.8093199103031083e+01  1.2604391239112717e+02  2.0947213979598507e+02  0.0000000000000000e+00  7.9826925550921345e+01  1.1675127081741135e+02  0.0000000000000000e+00  1.6560459149047836e+02  1.1824953822512853e+02  1.5128098788808472e+02  1.9652548451692135e+02  1.9864654568299144e+02  1.9328964987003306e+02  1.8228984401400410e+02  9.0490859803542577e+01  7.0969695306312289e+01  6.8078662523705617e+01  8.8470003889938184e+01  1.2932407977609597e+02  2.2866149519433219e+02  2.2567564292952116e+02  1.1605777784883496e+02  1.2676738702753237e+02  1.0888039117029007e+02  4.4846761977308425e+01  1.3701336522483982e+02  3.8000237246587751e+01  5.7183204534157042e+01  3.2487882472259550e+01  1.6931511732856941e+02  9.7130898639756367e+01  1.2626560514802216e+02  0.0000000000000000e+00  4.9801459415716920e+01  0.0000000000000000e+00  1.0253807422063259e+02  1.4312298594784487e+01  1.4224822585019345e+02  2.1601634463574808e+02  1.9429339554170380e+02  1.0790161739089018e+02  1.5556770720560522e+02  5.9889259537367273e+01  1.2748673761556874e+02  1.7398915605906271e+02  1.8619703256350209e+02  2.1121212085883906e+02  1.5028279712628773e+02  1.3507815665528472e+02  4.4590985396775473e+01  7.7331366773132800e+01  2.2143869411363269e+02  1.5088536600974720e+02  1.4938203545372488e+02  7.2560091630383795e+01  6.9359648677071263e+01  0.0000000000000000e+00  0.0000000000000000e+00  9.0785833524889938e+01  1.0148625329585913e+02  1.8459119942195289e+02  2.2228054752096264e+02  0.0000000000000000e+00  1.3948714773503477e+02  1.7483754573892035e+01  2.1895225238937826e+01  0.0000000000000000e+00  3.1906606554765830e+01  1.9695157852593550e+02  3.5070682083432644e+01  5.2586124841229982e+01  7.7084066710074922e+01  4.4412999009835396e+01  1.2820329347385132e+02  5.1521179133032177e+01  1.4114125391307931e+02  2.8744814463251178e+01  1.2208538807166343e+01  3.7863974672923504e+01  3.2660559559008398e+01  5.7571360069363735e+01  1.6752684070610007e+02  5.4355535147275226e+01  0.0000000000000000e+00  7.6489289267865360e+01  3.4270489582933557e+01  0.0000000000000000e+00  2.0570696141018274e+02  1.4267174243753445e+02  0.0000000000000000e+00  1.1586620511919763e+02  7.1103198344749885e+01  2.2772937483526556e+02  6.5234663221473312e+01  1.5453430527788197e+02  0.0000000000000000e+00  9.0599055888478361e+01  1.2384517771132361e+02  7.1864989772564186e+01  4.9267409295011397e+01  6.7567675264049882e+01  6.0505246570538326e+01  3.3167847064478657e+01  1.3829513262714698e+02  1.5288580874325277e+02  1.5891797941400429e+02  1.7902590696267009e+02  6.5458900483943424e+01  0.0000000000000000e+00  2.1199517339848279e+02  2.0132218188463469e+01  4.9812148239319463e+01  1.0942619314935573e+02  6.6168797684718740e+01  4.0840791020106209e+01  0.0000000000000000e+00  0.0000000000000000e+00  0.0000000000000000e+00  0.0000000000000000e+00  0.0000000000000000e+00  1.9103085678090346e+02  0.0000000000000000e+00  2.3961551417624676e+02  2.3959334896396209e+02  0.0000000000000000e+00  0.0000000000000000e+00  0.0000000000000000e+00  2.2858981219944803e+02  1.9079498581251002e+02  0.0000000000000000e+00  0.0000000000000000e+00  0.0000000000000000e+00  0.0000000000000000e+00  0.0000000000000000e+00  0.0000000000000000e+00  0.0000000000000000e+00  0.0000000000000000e+00  0.0000000000000000e+00  0.0000000000000000e+00  0.0000000000000000e+00  0.0000000000000000e+00  9.6525204491692762e+01  9.1376055738602290e+01  5.6087856899822320e+01  2.2041817377533818e+02  1.3147453230584162e+01  6.2046584754223630e+01  8.0981093432163732e+01  1.4214206151722411e+02  2.0554673546141632e+02  2.9176712736083616e+01  4.6112036097340784e+01  1.3699205070847529e+02  1.8884387581768914e+02  5.6227808980060352e+01  2.0720804431312672e+01  1.5538402999383663e+02  1.4658339293813904e+02  1.2906844209563451e+02  6.6560882839059502e+01  6.7203468815309137e+01  5.3042449214254837e+01  3.8560782256487386e+01  6.3254425898885025e+01  6.8175719354863091e+01  7.3285559968519635e+01  5.8463250609175937e+01  6.1749874221845964e+01  1.3538373489654020e+02  8.1373547651482312e+01  4.1064677371124475e+01  3.1575783580964814e+01  1.7496738510058304e+02  8.0376872881283163e+01  1.1956057145865095e+02  6.8859182302852588e+01  1.3086737496308447e+02  7.7484826688141993e+01  8.0142465490796781e+01  2.1763086114864322e+02  1.1285356133099482e+02  1.7829148099583159e+02  8.5096020901165232e+01  1.6433291685520240e+02  4.8110389787209115e+01  1.5065960919897717e+02  6.6950870968820993e+01  1.1758954185963553e+02  1.5608157413782516e+01  1.2957947184888607e+02  5.1231767091966688e+01  5.6856738335352752e+01  1.9611974487127512e+02  1.6818205587318792e+02  1.3400334468559771e+02  7.8634194699511497e+01  1.0118506653635438e+02  2.0084426389303610e+02  2.2717741004504043e+02  4.3397264486332027e+01  5.3716775128477430e+01  6.1419067200271712e+01  1.3133909574618338e+02  1.7112510111924462e+02  1.5552676093145601e+02  1.1991575532985942e+02  1.1659769153990267e+02  8.3942226257463687e+01  1.9078390742943898e+02  1.7371406647805051e+02  1.8679841072236624e+02  1.5633683607321555e+02  1.8459158067851490e+02  1.9910511479468596e+02  2.1448428556974579e+02  5.2600261771431583e+01  5.1284514888832824e+01  4.1666345913385548e+01  1.1653004527527611e+02  2.3263045674574860e+02  7.0000853318224586e+01  1.7790801368078607e+02  1.3939402051439382e+02  1.5123765674937832e+02  1.6680763123163098e+02  5.3517129599722182e+01  1.0674681073371340e+02  5.2209959193212747e+01  1.9202979084981820e+02  1.4085328875865636e+02  7.1720581934954723e+01  1.5422979692859562e+02  2.2969518093370962e+01  2.0600893510332863e+01  1.6243065539754670e+02  9.6673115902478031e+01  1.1200372797493880e+02  5.3669925542357269e+01  4.0806473919500689e+01  6.0592782156385560e+01  2.2974606469308321e+02  1.2699141062454524e+02  2.1947297242107757e+02  1.1713879021003140e+02  1.8602358714963162e+02  4.2218159910441095e+01  1.5002211523586260e+01  2.2735861343606248e+02  2.1635203373977299e+02  1.1108816257103751e+02  1.9580066748700261e+02  4.4615700245508719e+01  2.0692118834289820e+02  1.6671138650671438e+02  1.6027573072117195e+02  1.5782538051744393e+02  1.4398673831886805e+02  1.2139378841754478e+02  3.4968307245526894e+01  6.7441645889015263e+01  2.6383796048372993e+01  2.6577435643575072e+01  1.7548818344603367e+02  1.8097352244743271e+02  1.8568099123576766e+02  1.0820123537371440e+02  8.8081302243553651e+01  1.2965982260590914e+02  5.8402155868711404e+01  1.5755252398870471e+02  1.9338942542781652e+02  4.5697100101869587e+01  3.2652196499728944e+01  5.9864064611383974e+01  1.8952777338512905e+02  2.0957553872922691e+02  4.3274975205855014e+01  3.6879668370436285e+01  9.1581682614596488e+01  1.6986471927860410e+02  6.6632019918465289e+01  2.0250980289614144e+01  2.8309417574084488e+01  8.2380288797684159e+01  9.1615899875518650e+01  1.0750196094087940e+02  9.9718740513965528e+01  1.9308050929579920e+02  1.8655446724604484e+01  1.6052767688282754e+02  4.1430146764314820e+01  1.8410383756654821e+02  7.1145532922777235e+01  1.8238886264062754e+02  1.4909940531070209e+01  2.1060979084827324e+02  2.0921616979882143e+02  5.3522435522881402e+01  1.0400854589973166e+02  1.9604903086320297e+02  1.8399797310083827e+02  2.8938966205050622e+01  8.8680365323482462e+01  7.0142709562039315e+01  6.1549305103166787e+01  5.5826867484540685e+01  1.1425848567175336e+02  1.7511880504716791e+02  1.5393588806230957e+02  1.7227619100920936e+02  1.1545367530881227e+02  3.1798564035409751e+01  1.4822403070144833e+02  1.2037664392108343e+02  1.6066988372148353e+02  2.4209241375404570e+01  1.5904711607346593e+02  1.5568736705548574e+02  1.2343594260409172e+02  6.9063555191648675e+01  7.2265415792074293e+01  6.3655132129273682e+01  1.1404401778170113e+02  8.7806660264833070e+01  6.9348030796075918e+01  3.7889236477894222e+01  1.4600460972398025e+02  1.6142122790847958e+02  2.7677307474286355e+01  4.3291280386374488e+01  7.2093122734872551e+01  8.3410477215881514e+01  1.5503791327486283e+02  2.0907153131372854e+02  2.1890772650591725e+02  9.7352220637473749e+01  1.0242577537376361e+02  6.1785553188419541e+01  1.0431329751540005e+02  5.5175568861999039e+01  5.1750342558238238e+01  1.1836483884432253e+02  1.2478651942027096e+02  2.1315323153043497e+02  1.4738075580563037e+02  1.1059442016792109e+02  1.7515572840052158e+02  6.0696767617513856e+01  6.5385155931087894e+01  2.7370259652085334e+01  1.0165064308398136e+02  3.8625564533026335e+01  5.5250073508402849e+01  3.2709042833438090e+01  4.5395260787673472e+01  1.2983572956706149e+02  8.5895628166580718e+00  9.1243316945544333e+00  3.2217736788982180e+01  2.1765088889480839e+02  1.2556534009439963e+02  1.1896596794820751e+02  1.4169469157872138e+02  1.1563391730857172e+02  3.1440850041256240e+01  1.9868252291928634e+01  1.6806340351108538e+01  4.0895103348586865e+01  1.7868861551324761e+02  1.5688018685387945e+02  9.5292838382348464e+01  2.0119459090381105e+02  1.2925005904361092e+02  1.2313687147261902e+02  4.5082209746876615e+01  3.8742965416422422e+01  3.1658175950326491e+01  4.0624480386032197e+01  5.5121187283251714e+01  1.2165081084136233e+02  9.4905707582077824e+01  1.0727602518534743e+01  3.6107391684410587e+01  2.2871207562202775e+02  2.3666692477935186e+02  2.3492906657035141e+02  2.0891713483293637e+02  5.1663587537839668e+01  5.4858222458801848e+01  2.4760388534214623e+01  1.1727835718768314e+02  4.4411105623879237e+01  9.4832517779020975e+01  2.1988096051468077e+02  1.4924068021814449e+02  1.7175628920853788e+02  1.0787092418662759e+01  1.1868475436690582e+02  1.3475317549976808e+02  3.1277240815813091e+01  1.4715435636760475e+02  2.3482820866798423e+02  2.4116312197365730e+01  1.0698089488756234e+02  6.1807424339887625e+01  1.1543088198798556e+02  6.2146966861633565e+01  1.5907572872990482e+02  1.4880079579561317e+02  6.0446601861319799e+01  5.2333976337454494e+01  1.0650808408985858e+01  2.5210733792925371e+01  3.3593281670041435e+01  2.7991068195253526e+01  1.9822007244132113e+01  8.0484574855064448e+00  1.0074706773156436e+01  9.3275608256845871e+01  7.2596188761989069e+01  2.1758380606960137e+02  1.2964453562413854e+02  1.9862742625514744e+02  4.0080469922877995e+01  1.2056211402705942e+02  1.8926495591804360e+02  2.0207292183705184e+02  1.9563716339071036e+02  2.0300823885105308e+02  7.5979956955942157e+01  1.5999012934085675e+02  1.3555115211505284e+02  1.2881371556248743e+02  1.2467072221675815e+02  1.0327952928297354e+02  8.4586851147844129e+01  2.7789134222146551e+01  1.8880543818341209e+01  5.6283480564793173e+01  9.8857881018082949e+01  1.1106513043004334e+02  1.4400492446687534e+02  2.3656043249102734e+02  2.4952607862886520e+01  6.6176808166468277e+01  7.8058753740524793e+01  1.6524718342890299e+02  1.4228972299837858e+02  1.6214162988073099e+02  1.3875274474357838e+02  6.0778276061752273e+01  4.9138437335583141e+01  9.4938951361414652e+01  2.0043122725462641e+02  5.7644149248784423e+01  2.1148304856786331e+02  0.0000000000000000e+00  1.2219275647045811e+02  1.3709232129422807e+02  1.0568580162672954e+02  5.0491126854688162e+01  1.9466843136561417e+02  1.3432592926101782e+02  7.2545508559715827e+01  7.1168730885045989e+01  1.3822571441671951e+02  1.4435924983389282e+02  1.4768404814301084e+02  2.0276587299223273e+01  1.6538192672871736e+02  7.3187955681860146e+01  1.9440114301794736e+01  1.6899108258448001e+02  1.7104748844802282e+02  1.4653273628290532e+02  4.5854823539414213e+01  1.3672420698078648e+02  0.0000000000000000e+00  4.8134774011398854e+01  2.1619402813949014e+02  1.4352832281073810e+02  6.5726575337404171e+01  1.3253613272175244e+02  1.0484290398376297e+02  1.1436686790772741e+02  6.4769865747471187e+01  6.9436393966813185e+01  1.5350682849860098e+02  1.6700061157463352e+02  1.6037732756285436e+02  4.5404374474874878e+01  0.0000000000000000e+00  1.4801255944795378e+02  1.7687195637652584e+02  1.7382708507362238e+02  0.0000000000000000e+00  5.0380020293932709e+01  1.7906281405969904e+02  7.7010594787448809e+01  8.1713378937956378e+01  1.6257505134440791e+02  1.2482400014819095e+02  7.9855997772098931e+01  1.0354313331842023e+02  2.0530214542788588e+02  1.8432795682896301e+02  1.8177973239828836e+02  1.8226740824319737e+02  1.6252300514677270e+02  1.9277241441896916e+02  0.0000000000000000e+00  3.0734121559194424e+01  1.3198236540334383e+01  1.7375944033100430e+02  1.2452432654058035e+02  6.1407049493357533e+01  1.3296422024776959e+02  1.0656711018182418e+02  1.1782209384531721e+02  6.8317375649222882e+01  2.9669266858905679e+01  1.0347688525386846e+02  0.0000000000000000e+00  1.2685946357696268e+02  1.8506490418307826e+02  2.0067519915914639e+02  1.9339413623998752e+02  1.9517329217541717e+02  6.2069409974830371e+01  6.4468218347903431e+01  8.8616281332051173e+01  1.7784707625951623e+02  1.2020008956057431e+01  2.0546370020077526e+02  3.8096587679098384e+01  1.6471519798997517e+02  4.8844100332697039e+01  1.5395372119163602e+02  1.3062103539461410e+02  1.5536148712131219e+02  1.8085433786807613e+02  7.6373082484711205e+01  7.0034602255068563e+01  1.5198240390746889e+02  7.2791187434557642e+01  1.1795970596399287e+02  1.1197918194543030e+02  3.2694708292807228e+01  5.0587671418760038e+01  1.1410571336839729e+02  1.1882506373881355e+02  1.4191510740271150e+02  1.5162034568755692e+02  1.3702671996909311e+02  4.4084044019172175e+01  1.2244177558127180e+02  2.0413578078660152e+02  1.3411561049316674e+02  1.3832903197591151e+02  1.4114120222002629e+02  5.2547741496585594e+01  3.87818683270