<?xml version="1.0"?>
<VTKFile type="UnstructuredGrid"  version="0.1"  >
<UnstructuredGrid>
<Piece  NumberOfPoints="441" NumberOfCells="800">
<Points>
<DataArray  type="Float64"  NumberOfComponents="3"  format="ascii">0 0 0  0.05 0 0  0.1 0 0  0.15 0 0  0.2 0 0  0.25 0 0  0.3 0 0  0.35 0 0  0.4 0 0  0.45 0 0  0.5 0 0  0.55 0 0  0.6 0 0  0.65 0 0  0.7 0 0  0.75 0 0  0.8 0 0  0.85 0 0  0.9 0 0  0.95 0 0  1 0 0  0 0.05 0  0.05 0.05 0  0.1 0.05 0  0.15 0.05 0  0.2 0.05 0  0.25 0.05 0  0.3 0.05 0  0.35 0.05 0  0.4 0.05 0  0.45 0.05 0  0.5 0.05 0  0.55 0.05 0  0.6 0.05 0  0.65 0.05 0  0.7 0.05 0  0.75 0.05 0  0.8 0.05 0  0.85 0.05 0  0.9 0.05 0  0.95 0.05 0  1 0.05 0  0 0.1 0  0.05 0.1 0  0.1 0.1 0  0.15 0.1 0  0.2 0.1 0  0.25 0.1 0  0.3 0.1 0  0.35 0.1 0  0.4 0.1 0  0.45 0.1 0  0.5 0.1 0  0.55 0.1 0  0.6 0.1 0  0.65 0.1 0  0.7 0.1 0  0.75 0.1 0  0.8 0.1 0  0.85 0.1 0  0.9 0.1 0  0.95 0.1 0  1 0.1 0  0 0.15 0  0.05 0.15 0  0.1 0.15 0  0.15 0.15 0  0.2 0.15 0  0.25 0.15 0  0.3 0.15 0  0.35 0.15 0  0.4 0.15 0  0.45 0.15 0  0.5 0.15 0  0.55 0.15 0  0.6 0.15 0  0.65 0.15 0  0.7 0.15 0  0.75 0.15 0  0.8 0.15 0  0.85 0.15 0  0.9 0.15 0  0.95 0.15 0  1 0.15 0  0 0.2 0  0.05 0.2 0  0.1 0.2 0  0.15 0.2 0  0.2 0.2 0  0.25 0.2 0  0.3 0.2 0  0.35 0.2 0  0.4 0.2 0  0.45 0.2 0  0.5 0.2 0  0.55 0.2 0  0.6 0.2 0  0.65 0.2 0  0.7 0.2 0  0.75 0.2 0  0.8 0.2 0  0.85 0.2 0  0.9 0.2 0  0.95 0.2 0  1 0.2 0  0 0.25 0  0.05 0.25 0  0.1 0.25 0  0.15 0.25 0  0.2 0.25 0  0.25 0.25 0  0.3 0.25 0  0.35 0.25 0  0.4 0.25 0  0.45 0.25 0  0.5 0.25 0  0.55 0.25 0  0.6 0.25 0  0.65 0.25 0  0.7 0.25 0  0.75 0.25 0  0.8 0.25 0  0.85 0.25 0  0.9 0.25 0  0.95 0.25 0  1 0.25 0  0 0.3 0  0.05 0.3 0  0.1 0.3 0  0.15 0.3 0  0.2 0.3 0  0.25 0.3 0  0.3 0.3 0  0.35 0.3 0  0.4 0.3 0  0.45 0.3 0  0.5 0.3 0  0.55 0.3 0  0.6 0.3 0  0.65 0.3 0  0.7 0.3 0  0.75 0.3 0  0.8 0.3 0  0.85 0.3 0  0.9 0.3 0  0.95 0.3 0  1 0.3 0  0 0.35 0  0.05 0.35 0  0.1 0.35 0  0.15 0.35 0  0.2 0.35 0  0.25 0.35 0  0.3 0.35 0  0.35 0.35 0  0.4 0.35 0  0.45 0.35 0  0.5 0.35 0  0.55 0.35 0  0.6 0.35 0  0.65 0.35 0  0.7 0.35 0  0.75 0.35 0  0.8 0.35 0  0.85 0.35 0  0.9 0.35 0  0.95 0.35 0  1 0.35 0  0 0.4 0  0.05 0.4 0  0.1 0.4 0  0.15 0.4 0  0.2 0.4 0  0.25 0.4 0  0.3 0.4 0  0.35 0.4 0  0.4 0.4 0  0.45 0.4 0  0.5 0.4 0  0.55 0.4 0  0.6 0.4 0  0.65 0.4 0  0.7 0.4 0  0.75 0.4 0  0.8 0.4 0  0.85 0.4 0  0.9 0.4 0  0.95 0.4 0  1 0.4 0  0 0.45 0  0.05 0.45 0  0.1 0.45 0  0.15 0.45 0  0.2 0.45 0  0.25 0.45 0  0.3 0.45 0  0.35 0.45 0  0.4 0.45 0  0.45 0.45 0  0.5 0.45 0  0.55 0.45 0  0.6 0.45 0  0.65 0.45 0  0.7 0.45 0  0.75 0.45 0  0.8 0.45 0  0.85 0.45 0  0.9 0.45 0  0.95 0.45 0  1 0.45 0  0 0.5 0  0.05 0.5 0  0.1 0.5 0  0.15 0.5 0  0.2 0.5 0  0.25 0.5 0  0.3 0.5 0  0.35 0.5 0  0.4 0.5 0  0.45 0.5 0  0.5 0.5 0  0.55 0.5 0  0.6 0.5 0  0.65 0.5 0  0.7 0.5 0  0.75 0.5 0  0.8 0.5 0  0.85 0.5 0  0.9 0.5 0  0.95 0.5 0  1 0.5 0  0 0.55 0  0.05 0.55 0  0.1 0.55 0  0.15 0.55 0  0.2 0.55 0  0.25 0.55 0  0.3 0.55 0  0.35 0.55 0  0.4 0.55 0  0.45 0.55 0  0.5 0.55 0  0.55 0.55 0  0.6 0.55 0  0.65 0.55 0  0.7 0.55 0  0.75 0.55 0  0.8 0.55 0  0.85 0.55 0  0.9 0.55 0  0.95 0.55 0  1 0.55 0  0 0.6 0  0.05 0.6 0  0.1 0.6 0  0.15 0.6 0  0.2 0.6 0  0.25 0.6 0  0.3 0.6 0  0.35 0.6 0  0.4 0.6 0  0.45 0.6 0  0.5 0.6 0  0.55 0.6 0  0.6 0.6 0  0.65 0.6 0  0.7 0.6 0  0.75 0.6 0  0.8 0.6 0  0.85 0.6 0  0.9 0.6 0  0.95 0.6 0  1 0.6 0  0 0.65 0  0.05 0.65 0  0.1 0.65 0  0.15 0.65 0  0.2 0.65 0  0.25 0.65 0  0.3 0.65 0  0.35 0.65 0  0.4 0.65 0  0.45 0.65 0  0.5 0.65 0  0.55 0.65 0  0.6 0.65 0  0.65 0.65 0  0.7 0.65 0  0.75 0.65 0  0.8 0.65 0  0.85 0.65 0  0.9 0.65 0  0.95 0.65 0  1 0.65 0  0 0.7 0  0.05 0.7 0  0.1 0.7 0  0.15 0.7 0  0.2 0.7 0  0.25 0.7 0  0.3 0.7 0  0.35 0.7 0  0.4 0.7 0  0.45 0.7 0  0.5 0.7 0  0.55 0.7 0  0.6 0.7 0  0.65 0.7 0  0.7 0.7 0  0.75 0.7 0  0.8 0.7 0  0.85 0.7 0  0.9 0.7 0  0.95 0.7 0  1 0.7 0  0 0.75 0  0.05 0.75 0  0.1 0.75 0  0.15 0.75 0  0.2 0.75 0  0.25 0.75 0  0.3 0.75 0  0.35 0.75 0  0.4 0.75 0  0.45 0.75 0  0.5 0.75 0  0.55 0.75 0  0.6 0.75 0  0.65 0.75 0  0.7 0.75 0  0.75 0.75 0  0.8 0.75 0  0.85 0.75 0  0.9 0.75 0  0.95 0.75 0  1 0.75 0  0 0.8 0  0.05 0.8 0  0.1 0.8 0  0.15 0.8 0  0.2 0.8 0  0.25 0.8 0  0.3 0.8 0  0.35 0.8 0  0.4 0.8 0  0.45 0.8 0  0.5 0.8 0  0.55 0.8 0  0.6 0.8 0  0.65 0.8 0  0.7 0.8 0  0.75 0.8 0  0.8 0.8 0  0.85 0.8 0  0.9 0.8 0  0.95 0.8 0  1 0.8 0  0 0.85 0  0.05 0.85 0  0.1 0.85 0  0.15 0.85 0  0.2 0.85 0  0.25 0.85 0  0.3 0.85 0  0.35 0.85 0  0.4 0.85 0  0.45 0.85 0  0.5 0.85 0  0.55 0.85 0  0.6 0.85 0  0.65 0.85 0  0.7 0.85 0  0.75 0.85 0  0.8 0.85 0  0.85 0.85 0  0.9 0.85 0  0.95 0.85 0  1 0.85 0  0 0.9 0  0.05 0.9 0  0.1 0.9 0  0.15 0.9 0  0.2 0.9 0  0.25 0.9 0  0.3 0.9 0  0.35 0.9 0  0.4 0.9 0  0.45 0.9 0  0.5 0.9 0  0.55 0.9 0  0.6 0.9 0  0.65 0.9 0  0.7 0.9 0  0.75 0.9 0  0.8 0.9 0  0.85 0.9 0  0.9 0.9 0  0.95 0.9 0  1 0.9 0  0 0.95 0  0.05 0.95 0  0.1 0.95 0  0.15 0.95 0  0.2 0.95 0  0.25 0.95 0  0.3 0.95 0  0.35 0.95 0  0.4 0.95 0  0.45 0.95 0  0.5 0.95 0  0.55 0.95 0  0.6 0.95 0  0.65 0.95 0  0.7 0.95 0  0.75 0.95 0  0.8 0.95 0  0.85 0.95 0  0.9 0.95 0  0.95 0.95 0  1 0.95 0  0 1 0  0.05 1 0  0.1 1 0  0.15 1 0  0.2 1 0  0.25 1 0  0.3 1 0  0.35 1 0  0.4 1 0  0.45 1 0  0.5 1 0  0.55 1 0  0.6 1 0  0.65 1 0  0.7 1 0  0.75 1 0  0.8 1 0  0.85 1 0  0.9 1 0  0.95 1 0  1 1 0  </DataArray>
</Points>
<Cells>
[...]
<PointData  Scalars="f_25"> 
<DataArray  type="Float64"  Name="f_25"  format="ascii">0.0000000000000000e+00  0.0000000000000000e+00  0.0000000000000000e+00  0.0000000000000000e+00  0.0000000000000000e+00  0.0000000000000000e+00  0.0000000000000000e+00  0.0000000000000000e+00  0.0000000000000000e+00  0.0000000000000000e+00  0.0000000000000000e+00  0.0000000000000000e+00  0.0000000000000000e+00  0.0000000000000000e+00  0.0000000000000000e+00  0.0000000000000000e+00  0.0000000000000000e+00  0.0000000000000000e+00  0.0000000000000000e+00  0.0000000000000000e+00  0.0000000000000000e+00  0.0000000000000000e+00  1.4368401680119248e-05  3.7537093278016065e-05  7.1518797004814280e-05  1.1841659714141910e-04  1.8018801074179324e-04  2.5842347962345491e-04  3.5412352611220244e-04  4.6747756434297204e-04  5.9764712500161071e-04  7.4254532521884626e-04  8.9858291927780816e-04  1.0603161324405955e-03  1.2198767448858160e-03  1.3659799510494155e-03  1.4821704612531985e-03  1.5437401822754790e-03  1.5123289666265174e-03  1.3263132187494458e-03  8.8277732965086309e-04  0.0000000000000000e+00  0.0000000000000000e+00  3.7537093278016065e-05  9.6703546878618846e-05  1.8285290682632446e-04  3.0133147345978457e-04  4.5704730664235710e-04  6.5396087521992679e-04  8.9454048020747869e-04  1.1792103485595395e-03  1.5058026168924281e-03  1.8689921923066071e-03  2.2596376260169840e-03  2.6638620640206659e-03  3.0615714176631332e-03  3.4238984148190444e-03  3.7087413119555848e-03  3.8530646233048849e-03  3.7598163372362372e-03  3.2759486834941431e-03  2.1557147058227136e-03  0.0000000000000000e+00  0.0000000000000000e+00  7.1518797004814321e-05  1.8285290682632448e-04  3.4401975011125858e-04  5.6495980718185583e-04  8.5475166550315449e-04  1.2206901781619255e-03  1.6672894015772187e-03  2.1952619843752714e-03  2.8004955601707965e-03  3.4729851765538740e-03  4.1955762429530512e-03  4.9422079868342407e-03  5.6750983432232813e-03  6.3399407455891196e-03  6.8576369070295949e-03  7.1102892607107894e-03  6.9180195298141674e-03  6.0015667946995916e-03  3.9236014034093256e-03  0.0000000000000000e+00  0.0000000000000000e+00  1.1841659714141918e-04  3.0133147345978478e-04  5.6495980718185594e-04  9.2539192228676662e-04  1.3973032839418038e-03  1.9924612223839533e-03  2.7181112209469270e-03  3.5753181024930207e-03  4.5572904086740099e-03  5.6476172823549638e-03  6.8181784093599967e-03  8.0262241473290624e-03  9.2097296099872099e-03  1.0279554026419205e-02  1.1106120492314320e-02  1.1497196171109031e-02  1.1161836686844121e-02  9.6536789853577283e-03  6.2847874004542071e-03  0.0000000000000000e+00  0.0000000000000000e+00  1.8018801074179335e-04  4.5704730664235732e-04  8.5475166550315470e-04  1.3973032839418042e-03  2.1065902579075449e-03  3.0001471853133691e-03  4.0887356858036955e-03  5.3738495983943748e-03  6.8451803314075760e-03  8.4779309455218013e-03  1.0229617384322041e-02  1.2035607446906878e-02  1.3802075907735450e-02  1.5394236379628485e-02  1.6616574246536432e-02  1.7180280878574053e-02  1.6651150943364872e-02  1.4368951649852612e-02  9.3270773615547770e-03  0.0000000000000000e+00  0.0000000000000000e+00  2.5842347962345486e-04  6.5396087521992646e-04  1.2206901781619255e-03  1.9924612223839538e-03  3.0001471853133691e-03  4.2684737350127669e-03  5.8125875463811228e-03  7.6345058722039625e-03  9.7194902807038325e-03  1.2032181001496452e-02  1.4511978098788477e-02  1.7066616410665866e-02  1.9562093516804956e-02  2.1806000040979632e-02  2.3519788343356066e-02  2.4293534660872633e-02  2.3514304905798866e-02  2.0256491200702283e-02  1.3119912575310828e-02  0.0000000000000000e+00  0.0000000000000000e+00  3.5412352611220260e-04  8.9454048020747934e-04  1.6672894015772191e-03  2.7181112209469266e-03  4.0887356858036938e-03  5.8125875463811202e-03  7.9101273333798076e-03  1.0384012137819939e-02  1.3214127597902857e-02  1.6352263784041258e-02  1.9715738222946189e-02  2.3178550807399178e-02  2.6557614548793320e-02  2.9590155566821298e-02  3.1896425475839374e-02  3.2919358993335320e-02  3.1829771846961813e-02  2.7382361265855276e-02  1.7704727930646997e-02  0.0000000000000000e+00  0.0000000000000000e+00  4.6747756434297231e-04  1.1792103485595404e-03  2.1952619843752714e-03  3.5753181024930215e-03  5.3738495983943740e-03  7.6345058722039642e-03  1.0384012137819941e-02  1.3625805292433110e-02  1.7333467427963531e-02  2.1443654260401828e-02  2.5847608518023743e-02  3.0379423663128166e-02  3.4797892895316235e-02  3.8756940260499098e-02  4.1757185718337225e-02  4.3068088331688334e-02  4.1606405723881676e-02  3.5752713047151198e-02  2.3084172058227780e-02  0.0000000000000000e+00  0.0000000000000000e+00  5.9764712500161125e-04  1.5058026168924298e-03  2.8004955601707991e-03  4.5572904086740116e-03  6.8451803314075734e-03  9.7194902807038307e-03  1.3214127597902860e-02  1.7333467427963548e-02  2.2043938765361790e-02  2.7264921680286675e-02  3.2857804582430816e-02  3.8610895330804321e-02  4.4216227401975741e-02  4.9232035533014286e-02  5.3021686593923874e-02  5.4656092275292209e-02  5.2762203256063421e-02  4.5295491260114458e-02  2.9210273743419123e-02  0.0000000000000000e+00  0.0000000000000000e+00  7.4254532521884702e-04  1.8689921923066095e-03  3.4729851765538770e-03  5.6476172823549655e-03  8.4779309455218013e-03  1.2032181001496445e-02  1.6352263784041251e-02  2.1443654260401828e-02  2.7264921680286668e-02  3.3716337301487723e-02  4.0626158302785896e-02  4.7731767521087216e-02  5.4650849025057228e-02  6.0835054263893414e-02  6.5495048957378829e-02  6.7481390995771579e-02  6.5100525712210505e-02  5.5839808091438167e-02  3.5970984125471325e-02  0.0000000000000000e+00  0.0000000000000000e+00  8.9858291927780870e-04  2.2596376260169857e-03  4.1955762429530538e-03  6.8181784093599975e-03  1.0229617384322038e-02  1.4511978098788458e-02  1.9715738222946179e-02  2.5847608518023726e-02  3.2857804582430795e-02  4.0626158302785868e-02  4.8945371986812279e-02  5.7498053370299236e-02  6.5821810428566913e-02  7.3253489465703842e-02  7.8839493851558293e-02  8.1194009738719070e-02  7.8281103678168734e-02  6.7090687291140746e-02  4.3173608346505354e-02  0.0000000000000000e+00  0.0000000000000000e+00  1.0603161324405958e-03  2.6638620640206663e-03  4.9422079868342407e-03  8.0262241473290571e-03  1.2035607446906864e-02  1.7066616410665845e-02  2.3178550807399150e-02  3.0379423663128135e-02  3.8610895330804272e-02  4.7731767521087161e-02  5.7498053370299215e-02  6.7535715546472155e-02  7.7299450851990872e-02  8.6007249041928011e-02  9.2535759504552464e-02  9.5255784292050838e-02  9.1780779599292858e-02  7.8594891770511238e-02  5.0522377874931530e-02  0.0000000000000000e+00  0.0000000000000000e+00  1.2198767448858160e-03  3.0615714176631332e-03  5.6750983432232813e-03  9.2097296099872064e-03  1.3802075907735434e-02  1.9562093516804931e-02  2.6557614548793285e-02  3.4797892895316172e-02  4.4216227401975700e-02  5.4650849025057180e-02  6.5821810428566885e-02  7.7299450851990872e-02  8.8456971755879452e-02  9.8395604893795244e-02  1.0582570119682240e-01  1.0888089890588842e-01  1.0483576361137845e-01  8.9690939125803226e-02  5.7585806348430378e-02  0.0000000000000000e+00  0.0000000000000000e+00  1.3659799510494152e-03  3.4238984148190444e-03  6.3399407455891187e-03  1.0279554026419191e-02  1.5394236379628454e-02  2.1806000040979601e-02  2.9590155566821267e-02  3.8756940260499077e-02  4.9232035533014230e-02  6.0835054263893379e-02  7.3253489465703800e-02  8.6007249041928038e-02  9.8395604893795272e-02  1.0941403003455234e-01  1.1762294844474105e-01  1.2094406097305849e-01  1.1635324022215376e-01  9.9433312234970955e-02  6.3747665788482302e-02  0.0000000000000000e+00  0.0000000000000000e+00  1.4821704612531987e-03  3.7087413119555848e-03  6.8576369070295941e-03  1.1106120492314310e-02  1.6616574246536418e-02  2.3519788343356045e-02  3.1896425475839346e-02  4.1757185718337204e-02  5.3021686593923825e-02  6.5495048957378774e-02  7.8839493851558196e-02  9.2535759504552326e-02  1.0582570119682234e-01  1.1762294844474110e-01  1.2637300827332476e-01  1.2983806199533518e-01  1.2477580146880257e-01  1.0647777975083840e-01  6.8133906918078913e-02  0.0000000000000000e+00  0.0000000000000000e+00  1.5437401822754786e-03  3.8530646233048823e-03  7.1102892607107834e-03  1.1497196171109022e-02  1.7180280878574029e-02  2.4293534660872595e-02  3.2919358993335285e-02  4.3068088331688292e-02  5.4656092275292209e-02  6.7481390995771523e-02  8.1194009738719014e-02  9.5255784292050769e-02  1.0888089890588838e-01  1.2094406097305858e-01  1.2983806199533529e-01  1.3325713135535863e-01  1.2787833235290733e-01  1.0891295646584641e-01  6.9507948961513036e-02  0.0000000000000000e+00  0.0000000000000000e+00  1.5123289666265163e-03  3.7598163372362333e-03  6.9180195298141579e-03  1.1161836686844106e-02  1.6651150943364848e-02  2.3514304905798821e-02  3.1829771846961792e-02  4.1606405723881627e-02  5.2762203256063379e-02  6.5100525712210422e-02  7.8281103678168679e-02  9.1780779599292844e-02  1.0483576361137842e-01  1.1635324022215379e-01  1.2477580146880263e-01  1.2787833235290733e-01  1.2247576107333413e-01  1.0402583756086020e-01  6.6131910979551234e-02  0.0000000000000000e+00  0.0000000000000000e+00  1.3263132187494450e-03  3.2759486834941405e-03  6.0015667946995855e-03  9.6536789853577127e-03  1.4368951649852590e-02  2.0256491200702251e-02  2.7382361265855252e-02  3.5752713047151170e-02  4.5295491260114437e-02  5.5839808091438126e-02  6.7090687291140705e-02  7.8594891770511197e-02  8.9690939125803212e-02  9.9433312234971011e-02  1.0647777975083844e-01  1.0891295646584642e-01  1.0402583756086024e-01  8.8003040713022243e-02  5.5610691608552559e-02  0.0000000000000000e+00  0.0000000000000000e+00  8.8277732965086233e-04  2.1557147058227110e-03  3.9236014034093212e-03  6.2847874004541976e-03  9.3270773615547614e-03  1.3119912575310814e-02  1.7704727930646983e-02  2.3084172058227780e-02  2.9210273743419106e-02  3.5970984125471311e-02  4.3173608346505354e-02  5.0522377874931509e-02  5.7585806348430406e-02  6.3747665788482330e-02  6.8133906918078940e-02  6.9507948961513077e-02  6.6131910979551276e-02  5.5610691608552573e-02  3.4795236569660874e-02  0.0000000000000000e+00  0.0000000000000000e+00  0.0000000000000000e+00  0.0000000000000000e+00  0.0000000000000000e+00  0.0000000000000000e+00  0.0000000000000000e+00  0.0000000000000000e+00  0.0000000000000000e+00  0.0000000000000000e+00  0.0000000000000000e+00  0.0000000000000000e+00  0.0000000000000000e+00  0.0000000000000000e+00  0.0000000000000000e+00  0.0000000000000000e+00  0.0000000000000000e+00  0.0000000000000000e+00  0.0000000000000000e+00  0.0000000000000000e+00  0.0000000000000000e+00  0.0000000000000000e+00  </DataArray> 
</PointData> 
</Piece>
</UnstructuredGrid>
</VTKFile>