<?xml version="1.0"?>
<VTKFile type="UnstructuredGrid"  version="0.1"  >
<UnstructuredGrid>
<Piece  NumberOfPoints="441" NumberOfCells="800">
<Points>
<DataArray  type="Float64"  NumberOfComponents="3"  format="ascii">0 0 0  0.05 0 0  0.1 0 0  0.15 0 0  0.2 0 0  0.25 0 0  0.3 0 0  0.35 0 0  0.4 0 0  0.45 0 0  0.5 0 0  0.55 0 0  0.6 0 0  0.65 0 0  0.7 0 0  0.75 0 0  0.8 0 0  0.85 0 0  0.9 0 0  0.95 0 0  1 0 0  0 0.05 0  0.05 0.05 0  0.1 0.05 0  0.15 0.05 0  0.2 0.05 0  0.25 0.05 0  0.3 0.05 0  0.35 0.05 0  0.4 0.05 0  0.45 0.05 0  0.5 0.05 0  0.55 0.05 0  0.6 0.05 0  0.65 0.05 0  0.7 0.05 0  0.75 0.05 0  0.8 0.05 0  0.85 0.05 0  0.9 0.05 0  0.95 0.05 0  1 0.05 0  0 0.1 0  0.05 0.1 0  0.1 0.1 0  0.15 0.1 0  0.2 0.1 0  0.25 0.1 0  0.3 0.1 0  0.35 0.1 0  0.4 0.1 0  0.45 0.1 0  0.5 0.1 0  0.55 0.1 0  0.6 0.1 0  0.65 0.1 0  0.7 0.1 0  0.75 0.1 0  0.8 0.1 0  0.85 0.1 0  0.9 0.1 0  0.95 0.1 0  1 0.1 0  0 0.15 0  0.05 0.15 0  0.1 0.15 0  0.15 0.15 0  0.2 0.15 0  0.25 0.15 0  0.3 0.15 0  0.35 0.15 0  0.4 0.15 0  0.45 0.15 0  0.5 0.15 0  0.55 0.15 0  0.6 0.15 0  0.65 0.15 0  0.7 0.15 0  0.75 0.15 0  0.8 0.15 0  0.85 0.15 0  0.9 0.15 0  0.95 0.15 0  1 0.15 0  0 0.2 0  0.05 0.2 0  0.1 0.2 0  0.15 0.2 0  0.2 0.2 0  0.25 0.2 0  0.3 0.2 0  0.35 0.2 0  0.4 0.2 0  0.45 0.2 0  0.5 0.2 0  0.55 0.2 0  0.6 0.2 0  0.65 0.2 0  0.7 0.2 0  0.75 0.2 0  0.8 0.2 0  0.85 0.2 0  0.9 0.2 0  0.95 0.2 0  1 0.2 0  0 0.25 0  0.05 0.25 0  0.1 0.25 0  0.15 0.25 0  0.2 0.25 0  0.25 0.25 0  0.3 0.25 0  0.35 0.25 0  0.4 0.25 0  0.45 0.25 0  0.5 0.25 0  0.55 0.25 0  0.6 0.25 0  0.65 0.25 0  0.7 0.25 0  0.75 0.25 0  0.8 0.25 0  0.85 0.25 0  0.9 0.25 0  0.95 0.25 0  1 0.25 0  0 0.3 0  0.05 0.3 0  0.1 0.3 0  0.15 0.3 0  0.2 0.3 0  0.25 0.3 0  0.3 0.3 0  0.35 0.3 0  0.4 0.3 0  0.45 0.3 0  0.5 0.3 0  0.55 0.3 0  0.6 0.3 0  0.65 0.3 0  0.7 0.3 0  0.75 0.3 0  0.8 0.3 0  0.85 0.3 0  0.9 0.3 0  0.95 0.3 0  1 0.3 0  0 0.35 0  0.05 0.35 0  0.1 0.35 0  0.15 0.35 0  0.2 0.35 0  0.25 0.35 0  0.3 0.35 0  0.35 0.35 0  0.4 0.35 0  0.45 0.35 0  0.5 0.35 0  0.55 0.35 0  0.6 0.35 0  0.65 0.35 0  0.7 0.35 0  0.75 0.35 0  0.8 0.35 0  0.85 0.35 0  0.9 0.35 0  0.95 0.35 0  1 0.35 0  0 0.4 0  0.05 0.4 0  0.1 0.4 0  0.15 0.4 0  0.2 0.4 0  0.25 0.4 0  0.3 0.4 0  0.35 0.4 0  0.4 0.4 0  0.45 0.4 0  0.5 0.4 0  0.55 0.4 0  0.6 0.4 0  0.65 0.4 0  0.7 0.4 0  0.75 0.4 0  0.8 0.4 0  0.85 0.4 0  0.9 0.4 0  0.95 0.4 0  1 0.4 0  0 0.45 0  0.05 0.45 0  0.1 0.45 0  0.15 0.45 0  0.2 0.45 0  0.25 0.45 0  0.3 0.45 0  0.35 0.45 0  0.4 0.45 0  0.45 0.45 0  0.5 0.45 0  0.55 0.45 0  0.6 0.45 0  0.65 0.45 0  0.7 0.45 0  0.75 0.45 0  0.8 0.45 0  0.85 0.45 0  0.9 0.45 0  0.95 0.45 0  1 0.45 0  0 0.5 0  0.05 0.5 0  0.1 0.5 0  0.15 0.5 0  0.2 0.5 0  0.25 0.5 0  0.3 0.5 0  0.35 0.5 0  0.4 0.5 0  0.45 0.5 0  0.5 0.5 0  0.55 0.5 0  0.6 0.5 0  0.65 0.5 0  0.7 0.5 0  0.75 0.5 0  0.8 0.5 0  0.85 0.5 0  0.9 0.5 0  0.95 0.5 0  1 0.5 0  0 0.55 0  0.05 0.55 0  0.1 0.55 0  0.15 0.55 0  0.2 0.55 0  0.25 0.55 0  0.3 0.55 0  0.35 0.55 0  0.4 0.55 0  0.45 0.55 0  0.5 0.55 0  0.55 0.55 0  0.6 0.55 0  0.65 0.55 0  0.7 0.55 0  0.75 0.55 0  0.8 0.55 0  0.85 0.55 0  0.9 0.55 0  0.95 0.55 0  1 0.55 0  0 0.6 0  0.05 0.6 0  0.1 0.6 0  0.15 0.6 0  0.2 0.6 0  0.25 0.6 0  0.3 0.6 0  0.35 0.6 0  0.4 0.6 0  0.45 0.6 0  0.5 0.6 0  0.55 0.6 0  0.6 0.6 0  0.65 0.6 0  0.7 0.6 0  0.75 0.6 0  0.8 0.6 0  0.85 0.6 0  0.9 0.6 0  0.95 0.6 0  1 0.6 0  0 0.65 0  0.05 0.65 0  0.1 0.65 0  0.15 0.65 0  0.2 0.65 0  0.25 0.65 0  0.3 0.65 0  0.35 0.65 0  0.4 0.65 0  0.45 0.65 0  0.5 0.65 0  0.55 0.65 0  0.6 0.65 0  0.65 0.65 0  0.7 0.65 0  0.75 0.65 0  0.8 0.65 0  0.85 0.65 0  0.9 0.65 0  0.95 0.65 0  1 0.65 0  0 0.7 0  0.05 0.7 0  0.1 0.7 0  0.15 0.7 0  0.2 0.7 0  0.25 0.7 0  0.3 0.7 0  0.35 0.7 0  0.4 0.7 0  0.45 0.7 0  0.5 0.7 0  0.55 0.7 0  0.6 0.7 0  0.65 0.7 0  0.7 0.7 0  0.75 0.7 0  0.8 0.7 0  0.85 0.7 0  0.9 0.7 0  0.95 0.7 0  1 0.7 0  0 0.75 0  0.05 0.75 0  0.1 0.75 0  0.15 0.75 0  0.2 0.75 0  0.25 0.75 0  0.3 0.75 0  0.35 0.75 0  0.4 0.75 0  0.45 0.75 0  0.5 0.75 0  0.55 0.75 0  0.6 0.75 0  0.65 0.75 0  0.7 0.75 0  0.75 0.75 0  0.8 0.75 0  0.85 0.75 0  0.9 0.75 0  0.95 0.75 0  1 0.75 0  0 0.8 0  0.05 0.8 0  0.1 0.8 0  0.15 0.8 0  0.2 0.8 0  0.25 0.8 0  0.3 0.8 0  0.35 0.8 0  0.4 0.8 0  0.45 0.8 0  0.5 0.8 0  0.55 0.8 0  0.6 0.8 0  0.65 0.8 0  0.7 0.8 0  0.75 0.8 0  0.8 0.8 0  0.85 0.8 0  0.9 0.8 0  0.95 0.8 0  1 0.8 0  0 0.85 0  0.05 0.85 0  0.1 0.85 0  0.15 0.85 0  0.2 0.85 0  0.25 0.85 0  0.3 0.85 0  0.35 0.85 0  0.4 0.85 0  0.45 0.85 0  0.5 0.85 0  0.55 0.85 0  0.6 0.85 0  0.65 0.85 0  0.7 0.85 0  0.75 0.85 0  0.8 0.85 0  0.85 0.85 0  0.9 0.85 0  0.95 0.85 0  1 0.85 0  0 0.9 0  0.05 0.9 0  0.1 0.9 0  0.15 0.9 0  0.2 0.9 0  0.25 0.9 0  0.3 0.9 0  0.35 0.9 0  0.4 0.9 0  0.45 0.9 0  0.5 0.9 0  0.55 0.9 0  0.6 0.9 0  0.65 0.9 0  0.7 0.9 0  0.75 0.9 0  0.8 0.9 0  0.85 0.9 0  0.9 0.9 0  0.95 0.9 0  1 0.9 0  0 0.95 0  0.05 0.95 0  0.1 0.95 0  0.15 0.95 0  0.2 0.95 0  0.25 0.95 0  0.3 0.95 0  0.35 0.95 0  0.4 0.95 0  0.45 0.95 0  0.5 0.95 0  0.55 0.95 0  0.6 0.95 0  0.65 0.95 0  0.7 0.95 0  0.75 0.95 0  0.8 0.95 0  0.85 0.95 0  0.9 0.95 0  0.95 0.95 0  1 0.95 0  0 1 0  0.05 1 0  0.1 1 0  0.15 1 0  0.2 1 0  0.25 1 0  0.3 1 0  0.35 1 0  0.4 1 0  0.45 1 0  0.5 1 0  0.55 1 0  0.6 1 0  0.65 1 0  0.7 1 0  0.75 1 0  0.8 1 0  0.85 1 0  0.9 1 0  0.95 1 0  1 1 0  </DataArray>
</Points>
<Cells>
[...]
<PointData  Scalars="f_25"> 
<DataArray  type="Float64"  Name="f_25"  format="ascii">0.0000000000000000e+00  0.0000000000000000e+00  0.0000000000000000e+00  0.0000000000000000e+00  0.0000000000000000e+00  0.0000000000000000e+00  0.0000000000000000e+00  0.0000000000000000e+00  0.0000000000000000e+00  0.0000000000000000e+00  0.0000000000000000e+00  0.0000000000000000e+00  0.0000000000000000e+00  0.0000000000000000e+00  0.0000000000000000e+00  0.0000000000000000e+00  0.0000000000000000e+00  0.0000000000000000e+00  0.0000000000000000e+00  0.0000000000000000e+00  0.0000000000000000e+00  0.0000000000000000e+00  8.8435603966784974e-06  2.3172099459202458e-05  4.4315020054319911e-05  7.3710190825551782e-05  1.1276591740238742e-04  1.6272576305420249e-04  2.2452324772672121e-04  2.9862536989916957e-04  3.8486415410929689e-04  4.8224897013716982e-04  5.8873896687665773e-04  7.0093237844570200e-04  8.1359369327000373e-04  9.1888389759724653e-04  1.0050704971551758e-03  1.0543455911527727e-03  1.0391038757726575e-03  9.1543236242041810e-04  6.1101451809677534e-04  0.0000000000000000e+00  0.0000000000000000e+00  2.3172099459202461e-05  5.9859915855599507e-05  1.1359641438126883e-04  1.8803992073140573e-04  2.8672699845112430e-04  4.1276099869627143e-04  5.6845533518828039e-04  7.5494155659617732e-04  9.7174283789643750e-04  1.2162942298095281e-03  1.4833561163569017e-03  1.7642100769165272e-03  2.0454369878911026e-03  2.3069406011379432e-03  2.5186710301175297e-03  2.6351773656694607e-03  2.5865936956317773e-03  2.2637793373350770e-03  1.4938334778836855e-03  0.0000000000000000e+00  0.0000000000000000e+00  4.4315020054319945e-05  1.1359641438126886e-04  2.1447246632885338e-04  3.5376198086490358e-04  5.3802272866144908e-04  7.7298552053442818e-04  1.0628980783467525e-03  1.4097974255213837e-03  1.8127117190643628e-03  2.2667554405511568e-03  2.7620164370136765e-03  3.2820275650512478e-03  3.8014533198027223e-03  4.2823796556171224e-03  4.6682400765663519e-03  4.8738963512597894e-03  4.7696572904506740e-03  4.1560084325496021e-03  2.7245887402207051e-03  0.0000000000000000e+00  0.0000000000000000e+00  7.3710190825551836e-05  1.8803992073140578e-04  3.5376198086490375e-04  5.8195474916884911e-04  8.8325510164043413e-04  1.2669370574860609e-03  1.7398448815325153e-03  2.3052058339556097e-03  2.9613207958174939e-03  3.7000712180676556e-03  4.5050750260249460e-03  5.3491546972751682e-03  6.1905244386489689e-03  6.9667297867429768e-03  7.5848443062212050e-03  7.9057034276709074e-03  7.7190065257763448e-03  6.7049743751842550e-03  4.3771055896263270e-03  0.0000000000000000e+00  0.0000000000000000e+00  1.1276591740238753e-04  2.8672699845112441e-04  5.3802272866144919e-04  8.8325510164043402e-04  1.3383559845674229e-03  1.9171975335073874e-03  2.6299844596402392e-03  3.4814609790818529e-03  4.4689252929224496e-03  5.5799553464277660e-03  6.7895923742932697e-03  8.0564790527773208e-03  9.3170761971852391e-03  1.0476548572693417e-02  1.1394175988734902e-02  1.1860177657397651e-02  1.1559637342122071e-02  1.0017873973299927e-02  6.5203883667711736e-03  0.0000000000000000e+00  0.0000000000000000e+00  1.6272576305420260e-04  4.1276099869627176e-04  7.7298552053442840e-04  1.2669370574860609e-03  1.9171975335073874e-03  2.7434131716220895e-03  3.7600015438925371e-03  4.9735880868934735e-03  6.3801571993477120e-03  7.9617770757568120e-03  9.6825366407727962e-03  1.1482985112712002e-02  1.3271850857797642e-02  1.4913091992148094e-02  1.6205353746659108e-02  1.6849652441684376e-02  1.6399601295334822e-02  1.4186879586751609e-02  9.2132622952765583e-03  0.0000000000000000e+00  0.0000000000000000e+00  2.2452324772672142e-04  5.6845533518828082e-04  1.0628980783467530e-03  1.7398448815325149e-03  2.6299844596402388e-03  3.7600015438925376e-03  5.1494444806453078e-03  6.8072134327430639e-03  8.7276440008233359e-03  1.0885990409067958e-02  1.3232815370192063e-02  1.5686329110804160e-02  1.8121039718372776e-02  2.0350129177646809e-02  2.2097708886728188e-02  2.2955518930212849e-02  2.2316771797415567e-02  1.9277896126509545e-02  1.2497330494310026e-02  0.0000000000000000e+00  0.0000000000000000e+00  2.9862536989916973e-04  7.5494155659617743e-04  1.4097974255213837e-03  2.3052058339556097e-03  3.4814609790818538e-03  4.9735880868934752e-03  6.8072134327430665e-03  8.9939202182428239e-03  1.1526051720769941e-02  1.4370700086092156e-02  1.7462233276023618e-02  2.0692112743479395e-02  2.3893882398694818e-02  2.6820005666556380e-02  2.9105644365003864e-02  3.0212504025752217e-02  2.9343599570530544e-02  2.5317475936449750e-02  1.6388575918536447e-02  0.0000000000000000e+00  0.0000000000000000e+00  3.8486415410929727e-04  9.7174283789643794e-04  1.8127117190643639e-03  2.9613207958174965e-03  4.4689252929224531e-03  6.3801571993477146e-03  8.7276440008233393e-03  1.1526051720769943e-02  1.4765396645842723e-02  1.8403287610902954e-02  2.2355274352114155e-02  2.6481725092347540e-02  3.0568569752527825e-02  3.4297756380829221e-02  3.7201328678113814e-02  3.8590647098172351e-02  3.7449564521684943e-02  3.2277654829677302e-02  2.0867530869753549e-02  0.0000000000000000e+00  0.0000000000000000e+00  4.8224897013717020e-04  1.2162942298095290e-03  2.2667554405511586e-03  3.7000712180676565e-03  5.5799553464277668e-03  7.9617770757568103e-03  1.0885990409067962e-02  1.4370700086092160e-02  1.8403287610902958e-02  2.2930672689790033e-02  2.7847188797845927e-02  3.2978132813018771e-02  3.8055728778028215e-02  4.2682450096905529e-02  4.6274324750584808e-02  4.7974025973046196e-02  4.6520388990196386e-02  4.0057902977323687e-02  2.5867504814827635e-02  0.0000000000000000e+00  0.0000000000000000e+00  5.8873896687665806e-04  1.4833561163569025e-03  2.7620164370136769e-03  4.5050750260249468e-03  6.7895923742932697e-03  9.6825366407727927e-03  1.3232815370192051e-02  1.7462233276023607e-02  2.2355274352114152e-02  2.7847188797845927e-02  3.3809151718777519e-02  4.0028166520292945e-02  4.6177822606439274e-02  5.1773904444957893e-02  5.6106143872495552e-02  5.8134154422036566e-02  5.6332002192140671e-02  4.8462463057179897e-02  3.1259753778778876e-02  0.0000000000000000e+00  0.0000000000000000e+00  7.0093237844570211e-04  1.7642100769165276e-03  3.2820275650512478e-03  5.3491546972751665e-03  8.0564790527773121e-03  1.1482985112711990e-02  1.5686329110804149e-02  2.0692112743479377e-02  2.6481725092347530e-02  3.2978132813018757e-02  4.0028166520292896e-02  4.7378581107836694e-02  5.4641362923614337e-02  6.1241335864327048e-02  6.6336049474220879e-02  6.8694293635279180e-02  6.6515662935628314e-02  5.7170020739615635e-02  3.6833633952324432e-02  0.0000000000000000e+00  0.0000000000000000e+00  8.1359369327000362e-04  2.0454369878911039e-03  3.8014533198027223e-03  6.1905244386489646e-03  9.3170761971852305e-03  1.3271850857797623e-02  1.8121039718372763e-02  2.3893882398694794e-02  3.0568569752527811e-02  3.8055728778028201e-02  4.6177822606439246e-02  5.4641362923614344e-02  6.2996805318810620e-02  7.0578303595824163e-02  7.6412126895430421e-02  7.9078622968859855e-02  7.6508523473823448e-02  6.5690917021621900e-02  4.2268718707990698e-02  0.0000000000000000e+00  0.0000000000000000e+00  9.1888389759724610e-04  2.3069406011379428e-03  4.2823796556171224e-03  6.9667297867429699e-03  1.0476548572693404e-02  1.4913091992148075e-02  2.0350129177646788e-02  2.6820005666556360e-02  3.4297756380829221e-02  4.2682450096905508e-02  5.1773904444957872e-02  6.1241335864327041e-02  7.0578303595824177e-02  7.9035409105402271e-02  8.5518650588357462e-02  8.8437313766072528e-02  8.5481324497727051e-02  7.3305095316765212e-02  4.7094701037823941e-02  0.0000000000000000e+00  0.0000000000000000e+00  1.0050704971551754e-03  2.5186710301175288e-03  4.6682400765663519e-03  7.5848443062211963e-03  1.1394175988734895e-02  1.6205353746659094e-02  2.2097708886728160e-02  2.9105644365003843e-02  3.7201328678113779e-02  4.6274324750584801e-02  5.6106143872495517e-02  6.6336049474220782e-02  7.6412126895430407e-02  8.5518650588357531e-02  9.2467209981985196e-02  9.5535227590012858e-02  9.2232152727010963e-02  7.8972090661134892e-02  5.0634045488386743e-02  0.0000000000000000e+00  0.0000000000000000e+00  1.0543455911527719e-03  2.6351773656694581e-03  4.8738963512597842e-03  7.9057034276708970e-03  1.1860177657397638e-02  1.6849652441684349e-02  2.2955518930212821e-02  3.0212504025752183e-02  3.8590647098172323e-02  4.7974025973046154e-02  5.8134154422036538e-02  6.8694293635279111e-02  7.9078622968859869e-02  8.8437313766072598e-02  9.5535227590012956e-02  9.8588727328876330e-02  9.5033030299081278e-02  8.1203635578326966e-02  5.1922809459280836e-02  0.0000000000000000e+00  0.0000000000000000e+00  1.0391038757726566e-03  2.5865936956317739e-03  4.7696572904506662e-03  7.7190065257763292e-03  1.1559637342122045e-02  1.6399601295334788e-02  2.2316771797415542e-02  2.9343599570530513e-02  3.7449564521684908e-02  4.6520388990196358e-02  5.6332002192140629e-02  6.6515662935628217e-02  7.6508523473823434e-02  8.5481324497727051e-02  9.2232152727010977e-02  9.5033030299081334e-02  9.1416168987593166e-02  7.7892202170838892e-02  4.9609389034790660e-02  0.0000000000000000e+00  0.0000000000000000e+00  9.1543236242041701e-04  2.2637793373350744e-03  4.1560084325495961e-03  6.7049743751842420e-03  1.0017873973299904e-02  1.4186879586751583e-02  1.9277896126509514e-02  2.5317475936449726e-02  3.2277654829677281e-02  4.0057902977323666e-02  4.8462463057179918e-02  5.7170020739615621e-02  6.5690917021621886e-02  7.3305095316765226e-02  7.8972090661134919e-02  8.1203635578326994e-02  7.7892202170838934e-02  6.6100183094958090e-02  4.1845908580813239e-02  0.0000000000000000e+00  0.0000000000000000e+00  6.1101451809677447e-04  1.4938334778836833e-03  2.7245887402207012e-03  4.3771055896263192e-03  6.5203883667711605e-03  9.2132622952765426e-03  1.2497330494310009e-02  1.6388575918536440e-02  2.0867530869753539e-02  2.5867504814827625e-02  3.1259753778778890e-02  3.6833633952324425e-02  4.2268718707990698e-02  4.7094701037823941e-02  5.0634045488386736e-02  5.1922809459280857e-02  4.9609389034790681e-02  4.1845908580813246e-02  2.6231604291394688e-02  0.0000000000000000e+00  0.0000000000000000e+00  0.0000000000000000e+00  0.0000000000000000e+00  0.0000000000000000e+00  0.0000000000000000e+00  0.0000000000000000e+00  0.0000000000000000e+00  0.0000000000000000e+00  0.0000000000000000e+00  0.0000000000000000e+00  0.0000000000000000e+00  0.0000000000000000e+00  0.0000000000000000e+00  0.0000000000000000e+00  0.0000000000000000e+00  0.0000000000000000e+00  0.0000000000000000e+00  0.0000000000000000e+00  0.0000000000000000e+00  0.0000000000000000e+00  0.0000000000000000e+00  </DataArray> 
</PointData> 
</Piece>
</UnstructuredGrid>
</VTKFile>