<?xml version="1.0"?>
<VTKFile type="UnstructuredGrid"  version="0.1"  >
<UnstructuredGrid>
<Piece  NumberOfPoints="201" NumberOfCells="200">
<Points>
<DataArray  type="Float64"  NumberOfComponents="3"  format="ascii">0 0 0  0.01570796326794897 0 0  0.03141592653589793 0 0  0.04712388980384689 0 0  0.06283185307179587 0 0  0.07853981633974483 0 0  0.09424777960769379 0 0  0.1099557428756428 0 0  0.1256637061435917 0 0  0.1413716694115407 0 0  0.1570796326794897 0 0  0.1727875959474386 0 0  0.1884955592153876 0 0  0.2042035224833366 0 0  0.2199114857512855 0 0  0.2356194490192345 0 0  0.2513274122871835 0 0  0.2670353755551325 0 0  0.2827433388230814 0 0  0.2984513020910303 0 0  0.3141592653589793 0 0  0.3298672286269283 0 0  0.3455751918948772 0 0  0.3612831551628262 0 0  0.3769911184307752 0 0  0.3926990816987241 0 0  0.4084070449666731 0 0  0.4241150082346221 0 0  0.439822971502571 0 0  0.45553093477052 0 0  0.4712388980384689 0 0  0.4869468613064179 0 0  0.5026548245743669 0 0  0.5183627878423159 0 0  0.5340707511102649 0 0  0.5497787143782138 0 0  0.5654866776461628 0 0  0.5811946409141118 0 0  0.5969026041820606 0 0  0.6126105674500096 0 0  0.6283185307179586 0 0  0.6440264939859075 0 0  0.6597344572538566 0 0  0.6754424205218055 0 0  0.6911503837897545 0 0  0.7068583470577035 0 0  0.7225663103256523 0 0  0.7382742735936014 0 0  0.7539822368615503 0 0  0.7696902001294993 0 0  0.7853981633974483 0 0  0.8011061266653973 0 0  0.8168140899333463 0 0  0.8325220532012952 0 0  0.8482300164692441 0 0  0.8639379797371931 0 0  0.8796459430051421 0 0  0.895353906273091 0 0  0.9110618695410401 0 0  0.9267698328089889 0 0  0.9424777960769378 0 0  0.9581857593448869 0 0  0.9738937226128358 0 0  0.9896016858807849 0 0  1.005309649148734 0 0  1.021017612416683 0 0  1.036725575684632 0 0  1.052433538952581 0 0  1.06814150222053 0 0  1.083849465488479 0 0  1.099557428756428 0 0  1.115265392024377 0 0  1.130973355292326 0 0  1.146681318560274 0 0  1.162389281828224 0 0  1.178097245096172 0 0  1.193805208364121 0 0  1.20951317163207 0 0  1.225221134900019 0 0  1.240929098167968 0 0  1.256637061435917 0 0  1.272345024703866 0 0  1.288052987971815 0 0  1.303760951239764 0 0  1.319468914507713 0 0  1.335176877775662 0 0  1.350884841043611 0 0  1.36659280431156 0 0  1.382300767579509 0 0  1.398008730847458 0 0  1.413716694115407 0 0  1.429424657383356 0 0  1.445132620651305 0 0  1.460840583919254 0 0  1.476548547187203 0 0  1.492256510455152 0 0  1.507964473723101 0 0  1.52367243699105 0 0  1.539380400258999 0 0  1.555088363526948 0 0  1.570796326794897 0 0  1.586504290062845 0 0  1.602212253330795 0 0  1.617920216598743 0 0  1.633628179866693 0 0  1.649336143134641 0 0  1.66504410640259 0 0  1.680752069670539 0 0  1.696460032938488 0 0  1.712167996206437 0 0  1.727875959474386 0 0  1.743583922742335 0 0  1.759291886010284 0 0  1.774999849278233 0 0  1.790707812546182 0 0  1.806415775814131 0 0  1.82212373908208 0 0  1.837831702350029 0 0  1.853539665617978 0 0  1.869247628885927 0 0  1.884955592153876 0 0  1.900663555421825 0 0  1.916371518689774 0 0  1.932079481957723 0 0  1.947787445225672 0 0  1.96349540849362 0 0  1.97920337176157 0 0  1.994911335029519 0 0  2.010619298297468 0 0  2.026327261565417 0 0  2.042035224833366 0 0  2.057743188101314 0 0  2.073451151369264 0 0  2.089159114637213 0 0  2.104867077905161 0 0  2.12057504117311 0 0  2.13628300444106 0 0  2.151990967709009 0 0  2.167698930976957 0 0  2.183406894244906 0 0  2.199114857512855 0 0  2.214822820780804 0 0  2.230530784048753 0 0  2.246238747316702 0 0  2.261946710584651 0 0  2.2776546738526 0 0  2.293362637120549 0 0  2.309070600388498 0 0  2.324778563656447 0 0  2.340486526924396 0 0  2.356194490192345 0 0  2.371902453460294 0 0  2.387610416728243 0 0  2.403318379996192 0 0  2.419026343264141 0 0  2.43473430653209 0 0  2.450442269800039 0 0  2.466150233067987 0 0  2.481858196335937 0 0  2.497566159603886 0 0  2.513274122871834 0 0  2.528982086139783 0 0  2.544690049407732 0 0  2.560398012675681 0 0  2.57610597594363 0 0  2.591813939211579 0 0  2.607521902479529 0 0  2.623229865747478 0 0  2.638937829015426 0 0  2.654645792283375 0 0  2.670353755551324 0 0  2.686061718819273 0 0  2.701769682087222 0 0  2.717477645355171 0 0  2.73318560862312 0 0  2.748893571891069 0 0  2.764601535159018 0 0  2.780309498426967 0 0  2.796017461694916 0 0  2.811725424962865 0 0  2.827433388230814 0 0  2.843141351498763 0 0  2.858849314766712 0 0  2.87455727803466 0 0  2.890265241302609 0 0  2.905973204570559 0 0  2.921681167838508 0 0  2.937389131106457 0 0  2.953097094374406 0 0  2.968805057642355 0 0  2.984513020910303 0 0  3.000220984178252 0 0  3.015928947446201 0 0  3.03163691071415 0 0  3.047344873982099 0 0  3.063052837250048 0 0  3.078760800517997 0 0  3.094468763785946 0 0  3.110176727053895 0 0  3.125884690321844 0 0  3.141592653589793 0 0  </DataArray>
</Points>
<Cells>
<DataArray  type="UInt32"  Name="connectivity"  format="ascii">0 1  1 2  2 3  3 4  4 5  5 6  6 7  7 8  8 9  9 10  10 11  11 12  12 13  13 14  14 15  15 16  16 17  17 18  18 19  19 20  20 21  21 22  22 23  23 24  24 25  25 26  26 27  27 28  28 29  29 30  30 31  31 32  32 33  33 34  34 35  35 36  36 37  37 38  38 39  39 40  40 41  41 42  42 43  43 44  44 45  45 46  46 47  47 48  48 49  49 50  50 51  51 52  52 53  53 54  54 55  55 56  56 57  57 58  58 59  59 60  60 61  61 62  62 63  63 64  64 65  65 66  66 67  67 68  68 69  69 70  70 71  71 72  72 73  73 74  74 75  75 76  76 77  77 78  78 79  79 80  80 81  81 82  82 83  83 84  84 85  85 86  86 87  87 88  88 89  89 90  90 91  91 92  92 93  93 94  94 95  95 96  96 97  97 98  98 99  99 100  100 101  101 102  102 103  103 104  104 105  105 106  106 107  107 108  108 109  109 110  110 111  111 112  112 113  113 114  114 115  115 116  116 117  117 118  118 119  119 120  120 121  121 122  122 123  123 124  124 125  125 126  126 127  127 128  128 129  129 130  130 131  131 132  132 133  133 134  134 135  135 136  136 137  137 138  138 139  139 140  140 141  141 142  142 143  143 144  144 145  145 146  146 147  147 148  148 149  149 150  150 151  151 152  152 153  153 154  154 155  155 156  156 157  157 158  158 159  159 160  160 161  161 162  162 163  163 164  164 165  165 166  166 167  167 168  168 169  169 170  170 171  171 172  172 173  173 174  174 175  175 176  176 177  177 178  178 179  179 180  180 181  181 182  182 183  183 184  184 185  185 186  186 187  187 188  188 189  189 190  190 191  191 192  192 193  193 194  194 195  195 196  196 197  197 198  198 199  199 200  </DataArray>
<DataArray  type="UInt32"  Name="offsets"  format="ascii">2 4 6 8 10 12 14 16 18 20 22 24 26 28 30 32 34 36 38 40 42 44 46 48 50 52 54 56 58 60 62 64 66 68 70 72 74 76 78 80 82 84 86 88 90 92 94 96 98 100 102 104 106 108 110 112 114 116 118 120 122 124 126 128 130 132 134 136 138 140 142 144 146 148 150 152 154 156 158 160 162 164 166 168 170 172 174 176 178 180 182 184 186 188 190 192 194 196 198 200 202 204 206 208 210 212 214 216 218 220 222 224 226 228 230 232 234 236 238 240 242 244 246 248 250 252 254 256 258 260 262 264 266 268 270 272 274 276 278 280 282 284 286 288 290 292 294 296 298 300 302 304 306 308 310 312 314 316 318 320 322 324 326 328 330 332 334 336 338 340 342 344 346 348 350 352 354 356 358 360 362 364 366 368 370 372 374 376 378 380 382 384 386 388 390 392 394 396 398 400 </DataArray>
<DataArray  type="UInt8"  Name="types"  format="ascii">3 3 3 3 3 3 3 3 3 3 3 3 3 3 3 3 3 3 3 3 3 3 3 3 3 3 3 3 3 3 3 3 3 3 3 3 3 3 3 3 3 3 3 3 3 3 3 3 3 3 3 3 3 3 3 3 3 3 3 3 3 3 3 3 3 3 3 3 3 3 3 3 3 3 3 3 3 3 3 3 3 3 3 3 3 3 3 3 3 3 3 3 3 3 3 3 3 3 3 3 3 3 3 3 3 3 3 3 3 3 3 3 3 3 3 3 3 3 3 3 3 3 3 3 3 3 3 3 3 3 3 3 3 3 3 3 3 3 3 3 3 3 3 3 3 3 3 3 3 3 3 3 3 3 3 3 3 3 3 3 3 3 3 3 3 3 3 3 3 3 3 3 3 3 3 3 3 3 3 3 3 3 3 3 3 3 3 3 3 3 3 3 3 3 3 3 3 3 3 3 </DataArray>
</Cells>
<PointData  Scalars="f_4191"> 
<DataArray  type="Float64"  Name="f_4191"  format="ascii">1.0000000000000000e+00  1.5909818954751621e+01  1.5388877101275369e+01  1.5774644797090707e+01  1.6330891038146142e+01  1.6934193232832001e+01  1.7560165288571429e+01  1.8202779326049555e+01  1.8860106283263729e+01  1.9531254536562180e+01  2.0215601250732842e+01  2.0912576968545913e+01  2.1621602333173069e+01  2.2342071036447599e+01  2.3073347778276140e+01  2.3814771183835958e+01  2.4565658210087832e+01  2.5325308788908746e+01  2.6093010249652274e+01  2.6868041364687585e+01  2.7649675979331143e+01  2.8437186234347365e+01  2.9229845407134992e+01  3.0026930403603277e+01  3.0827723933507279e+01  3.1631516400625223e+01  3.2437607536932163e+01  3.3245307807441961e+01  3.4053939609919226e+01  3.4862838291320394e+01  3.5671353000656040e+01  3.6478847395986413e+01  3.7284700221466963e+01  3.8088305768740348e+01  3.8889074235511870e+01  3.9686431992833256e+01  4.0479821771441401e+01  4.1268702776439973e+01  4.2052550738662255e+01  4.2830857910200315e+01  4.3603133010819874e+01  4.4368901131292418e+01  4.5127703599058407e+01  4.5879097811079831e+01  4.6622657038241350e+01  4.7357970205210385e+01  4.8084641649262558e+01  4.8802290861215425e+01  4.9510552211286246e+01  5.0209074662394997e+01  5.0897521473167892e+01  5.1575569892658187e+01  5.2242910848584884e+01  5.2899248630695723e+01  5.3544300570685827e+01  5.4177796719944865e+01  5.4799479526263532e+01  5.5409103510501346e+01  5.6006434944101656e+01  5.6591251528235546e+01  5.7163342075261646e+01  5.7722506193104060e+01  5.8268553973073708e+01  5.8801305681589689e+01  5.9320591456194315e+01  5.9826251006200330e+01  6.0318133318257672e+01  6.0796096367081823e+01  6.1260006831545411e+01  6.1709739816297656e+01  6.2145178579043588e+01  6.2566214263585479e+01  6.2972745638702285e+01  6.3364678842919972e+01  6.3741927135203717e+01  6.4104410651584701e+01  6.4452056167717544e+01  6.4784796867349570e+01  6.5102572116669748e+01  6.5405327244494018e+01  6.5693013328233235e+01  6.5965586985581510e+01  6.6223010171854241e+01  6.6465249982899138e+01  6.6692278463497686e+01  6.6904072421169062e+01  6.7100613245284819e+01  6.7281886731399155e+01  6.7447882910696464e+01  6.7598595884455818e+01  6.7734023663430207e+01  6.7854168012036823e+01  6.7959034297253908e+01  6.8048631342119151e+01  6.8122971283724183e+01  6.8182069435599885e+01  6.8225944154387577e+01  6.8254616710691337e+01  6.8268111164007834e+01  6.8266454241630882e+01  6.8249675221428589e+01  6.8217805818392762e+01  6.8170880074860918e+01  6.8108934254313283e+01  6.8032006738648164e+01  6.7940137928840954e+01  6.7833370148893394e+01  6.7711747552981876e+01  6.7575316035714806e+01  6.7424123145411087e+01  6.7258218000313462e+01  6.7077651207652337e+01  6.6882474785477683e+01  6.6672742087178094e+01  6.6448507728608135e+01  6.6209827517747058e+01  6.5956758386813476e+01  6.5689358326762687e+01  6.5407686324094939e+01  6.5111802299905108e+01  6.4801767051105145e+01  6.4477642193753496e+01  6.4139490108426770e+01  6.3787373887570368e+01  6.3421357284767481e+01  6.3041504665866391e+01  6.2647880961908101e+01  6.2240551623798261e+01  6.1819582578667934e+01  6.1385040187870622e+01  6.0936991206563015e+01  6.0475502744819551e+01  6.0000642230231641e+01  5.9512477371944073e+01  5.9011076126082301e+01  5.8496506662526002e+01  5.7968837332985046e+01  5.7428136640335900e+01  5.6874473209177211e+01  5.6307915757564821e+01  5.5728533069887597e+01  5.5136393970846413e+01  5.4531567300500228e+01  5.3914121890343672e+01  5.3284126540381870e+01  5.2641649997169758e+01  5.1986760932783120e+01  5.1319527924690519e+01  5.0640019436495777e+01  4.9948303799521497e+01  4.9244449195205668e+01  4.8528523638283104e+01  4.7800594960725626e+01  4.7060730796414745e+01  4.6308998566522050e+01  4.5545465465572612e+01  4.4770198448168252e+01  4.3983264216347742e+01  4.3184729207561730e+01  4.2374659583241247e+01  4.1553121217938667e+01  4.0720179689021599e+01  3.9875900266899848e+01  3.9020347905766819e+01  3.8153587234837083e+01  3.7275682550062477e+01  3.6386697806309719e+01  3.5486696609983184e+01  3.4575742212076051e+01  3.3653897501635491e+01  3.2721224999626060e+01  3.1777786853177162e+01  3.0823644830200347e+01  2.9858860314363053e+01  2.8883494300405484e+01  2.7897607389788050e+01  2.6901259786656915e+01  2.5894511294115969e+01  2.4877421310793405e+01  2.3850048827691964e+01  2.2812452425312166e+01  2.1764690271037910e+01  2.0706820116774399e+01  1.9638899296828786e+01  1.8560984726023936e+01  1.7473132898036308e+01  1.6375399883949257e+01  1.5267841331012775e+01  1.4150512461602212e+01  1.3023468072367125e+01  1.1886762533563370e+01  1.0740449788560465e+01  9.5845833535172602e+00  8.4192163172189503e+00  7.2444013410686292e+00  6.0601906592271630e+00  4.8666360788946124e+00  3.6637889807277690e+00  2.4517003193874913e+00  1.2304206242105478e+00  0.0000000000000000e+00  </DataArray> 
</PointData> 
</Piece>
</UnstructuredGrid>
</VTKFile>